 argument  1 = proton/mol.nwi
                                         
                                         


             Northwest Computational Chemistry Package (NWChem) 7.2.2
             --------------------------------------------------------


                    Environmental Molecular Sciences Laboratory
                       Pacific Northwest National Laboratory
                                Richland, WA 99352

                              Copyright (c) 1994-2022
                       Pacific Northwest National Laboratory
                            Battelle Memorial Institute

             NWChem is an open-source computational chemistry package
                        distributed under the terms of the
                      Educational Community License (ECL) 2.0
             A copy of the license is included with this distribution
                              in the LICENSE.TXT file

                                  ACKNOWLEDGMENT
                                  --------------

            This software and its documentation were developed at the
            EMSL at Pacific Northwest National Laboratory, a multiprogram
            national laboratory, operated for the U.S. Department of Energy
            by Battelle under Contract Number DE-AC05-76RL01830. Support
            for this work was provided by the Department of Energy Office
            of Biological and Environmental Research, Office of Basic
            Energy Sciences, and the Office of Advanced Scientific Computing.


           Job information
           ---------------

    hostname        = r195.ib.bridges2.psc.edu
    program         = nwchem
    date            = Wed Oct  2 10:51:59 2024

    compiled        = Mon_Mar_18_17:03:37_2024
    source          = /ocean/projects/pscstaff/mmadrid/nwchem-7.2.2
    nwchem branch   = 7.2.2
    nwchem revision = 74936fb9
    ga revision     = 5.8.0
    use scalapack   = F
    input           = proton/mol.nwi
    prefix          = dft.
    data base       = .//dft.db
    status          = startup
    nproc           =       15
    time left       =     -1s



           Memory information
           ------------------

    heap     =   67108858 doubles =    512.0 Mbytes
    stack    =   67108863 doubles =    512.0 Mbytes
    global   =  134217728 doubles =   1024.0 Mbytes (distinct from heap & stack)
    total    =  268435449 doubles =   2048.0 Mbytes
    verify   = yes
    hardfail = no 


           Directory information
           ---------------------

  0 permanent = ./
  0 scratch   = /jet/home/hmt47/nwchem_scratch/




                                NWChem Input Module
                                -------------------


  library name resolved from: environment
  library file name is: </opt/packages/nwchem/nwchem7.2.2/share/nwchem/libraries/>
  


 Summary of "ao basis" -> "" (cartesian)
 ------------------------------------------------------------------------------
       Tag                 Description            Shells   Functions and Types
 ---------------- ------------------------------  ------  ---------------------
 *                        aug-cc-pVTZ                 on all atoms 


  pbe96 is a nonlocal functional; adding pw91lda local functional. 

 Scaling coordinates for geometry "geometry" by  1.889725989
 (inverse scale =  0.529177249)



                             Geometry "geometry" -> ""
                             -------------------------

 Output coordinates in angstroms (scale by  1.889725989 to convert to a.u.)

  No.       Tag          Charge          X              Y              Z
 ---- ---------------- ---------- -------------- -------------- --------------
    1 Cl                  17.0000     0.00000000     0.00000000     0.00000000
    2 H                    1.0000     0.91320274     0.02365322    -0.40681850

      Atomic Mass 
      ----------- 

      Cl                34.968850
      H                  1.007825


 Effective nuclear repulsion energy (a.u.)       8.9960132330

            Nuclear Dipole moment (a.u.) 
            ----------------------------
        X                 Y               Z
 ---------------- ---------------- ----------------
     1.7257029424     0.0446981072    -0.7687754846


            XYZ format geometry
            -------------------
     2
 geometry
 Cl                    0.00000000     0.00000000     0.00000000
 H                     0.91320274     0.02365322    -0.40681850

 ==============================================================================
                                internuclear distances
 ------------------------------------------------------------------------------
       center one      |      center two      | atomic units |  angstroms
 ------------------------------------------------------------------------------
    2 H                |   1 Cl               |     1.88973  |     1.00000
 ------------------------------------------------------------------------------
                         number of included internuclear distances:          1
 ==============================================================================





                           NWChem Geometry Optimization
                           ----------------------------


 maximum gradient threshold         (gmax) =   0.000450
 rms gradient threshold             (grms) =   0.000300
 maximum cartesian step threshold   (xmax) =   0.001800
 rms cartesian step threshold       (xrms) =   0.001200
 fixed trust radius                (trust) =   0.300000
 maximum step size to saddle      (sadstp) =   0.100000
 energy precision                  (eprec) =   5.0D-06
 maximum number of steps          (nptopt) =   40
 initial hessian option           (inhess) =    0
 line search option               (linopt) =    1
 hessian update option            (modupd) =    1
 saddle point option              (modsad) =    0
 initial eigen-mode to follow     (moddir) =    0
 initial variable to follow       (vardir) =    0
 follow first negative mode     (firstneg) =    T
 apply conjugacy                    (opcg) =    F
 source of zmatrix                         =           


          -------------------
          Energy Minimization
          -------------------


 Using diagonal initial Hessian 

          --------
          Step   0
          --------


                         Geometry "geometry" -> "geometry"
                         ---------------------------------

 Output coordinates in angstroms (scale by  1.889725989 to convert to a.u.)

  No.       Tag          Charge          X              Y              Z
 ---- ---------------- ---------- -------------- -------------- --------------
    1 Cl                  17.0000     0.00000000     0.00000000     0.00000000
    2 H                    1.0000     0.91320274     0.02365322    -0.40681850

      Atomic Mass 
      ----------- 

      Cl                34.968850
      H                  1.007825


 Effective nuclear repulsion energy (a.u.)       8.9960132330

            Nuclear Dipole moment (a.u.) 
            ----------------------------
        X                 Y               Z
 ---------------- ---------------- ----------------
     1.7257029424     0.0446981072    -0.7687754846


                                 NWChem DFT Module
                                 -----------------


                      Basis "ao basis" -> "ao basis" (cartesian)
                      -----
  Cl (Chlorine)
  -------------
            Exponent  Coefficients 
       -------------- ---------------------------------------------------------
  1 S  4.56100000E+05  0.000049
  1 S  6.83300000E+04  0.000383
  1 S  1.55500000E+04  0.002009
  1 S  4.40500000E+03  0.008386
  1 S  1.43900000E+03  0.029470
  1 S  5.20400000E+02  0.087833
  1 S  2.03100000E+02  0.211473
  1 S  8.39600000E+01  0.365364
  1 S  3.62000000E+01  0.340884
  1 S  1.58300000E+01  0.102133
  1 S  6.33400000E+00  0.003117
  1 S  2.69400000E+00  0.001058
  1 S  4.31300000E-01  0.000156

  2 S  4.56100000E+05 -0.000014
  2 S  6.83300000E+04 -0.000107
  2 S  1.55500000E+04 -0.000565
  2 S  4.40500000E+03 -0.002361
  2 S  1.43900000E+03 -0.008459
  2 S  5.20400000E+02 -0.025964
  2 S  2.03100000E+02 -0.068636
  2 S  8.39600000E+01 -0.141874
  2 S  3.62000000E+01 -0.199319
  2 S  1.58300000E+01 -0.019566
  2 S  6.33400000E+00  0.499741
  2 S  2.69400000E+00  0.563736
  2 S  4.31300000E-01 -0.008351

  3 S  4.56100000E+05  0.000004
  3 S  6.83300000E+04  0.000032
  3 S  1.55500000E+04  0.000171
  3 S  4.40500000E+03  0.000714
  3 S  1.43900000E+03  0.002567
  3 S  5.20400000E+02  0.007886
  3 S  2.03100000E+02  0.021087
  3 S  8.39600000E+01  0.044226
  3 S  3.62000000E+01  0.065167
  3 S  1.58300000E+01  0.006030
  3 S  6.33400000E+00 -0.206495
  3 S  2.69400000E+00 -0.405871
  3 S  4.31300000E-01  0.725661

  4 S  9.76800000E-01  1.000000

  5 S  1.62500000E-01  1.000000

  6 S  5.91000000E-02  1.000000

  7 P  6.63300000E+02  0.002404
  7 P  1.56800000E+02  0.019215
  7 P  4.99800000E+01  0.088510
  7 P  1.84200000E+01  0.256020
  7 P  7.24000000E+00  0.436927
  7 P  2.92200000E+00  0.350334
  7 P  3.81800000E-01 -0.004584

  8 P  6.63300000E+02 -0.000652
  8 P  1.56800000E+02 -0.005194
  8 P  4.99800000E+01 -0.024694
  8 P  1.84200000E+01 -0.072817
  8 P  7.24000000E+00 -0.134030
  8 P  2.92200000E+00 -0.094774
  8 P  3.81800000E-01  0.564667

  9 P  1.02200000E+00  1.000000

 10 P  1.30100000E-01  1.000000

 11 P  4.19000000E-02  1.000000

 12 D  1.04600000E+00  1.000000

 13 D  3.44000000E-01  1.000000

 14 D  1.35000000E-01  1.000000

 15 F  7.06000000E-01  1.000000

 16 F  3.12000000E-01  1.000000

  H (Hydrogen)
  ------------
            Exponent  Coefficients 
       -------------- ---------------------------------------------------------
  1 S  3.38700000E+01  0.006068
  1 S  5.09500000E+00  0.045308
  1 S  1.15900000E+00  0.202822

  2 S  3.25800000E-01  1.000000

  3 S  1.02700000E-01  1.000000

  4 S  2.52600000E-02  1.000000

  5 P  1.40700000E+00  1.000000

  6 P  3.88000000E-01  1.000000

  7 P  1.02000000E-01  1.000000

  8 D  1.05700000E+00  1.000000

  9 D  2.47000000E-01  1.000000



 Summary of "ao basis" -> "ao basis" (cartesian)
 ------------------------------------------------------------------------------
       Tag                 Description            Shells   Functions and Types
 ---------------- ------------------------------  ------  ---------------------
 Cl                       aug-cc-pVTZ               16       59   6s5p3d2f
 H                        aug-cc-pVTZ                9       25   4s3p2d




 Summary of "ao basis" -> "ao basis" (cartesian)
 ------------------------------------------------------------------------------
       Tag                 Description            Shells   Functions and Types
 ---------------- ------------------------------  ------  ---------------------
 Cl                       aug-cc-pVTZ               16       59   6s5p3d2f
 H                        aug-cc-pVTZ                9       25   4s3p2d


  Caching 1-el integrals 

            General Information
            -------------------
          SCF calculation type: DFT
          Wavefunction type:  closed shell.
          No. of atoms     :     2
          No. of electrons :    18
           Alpha electrons :     9
            Beta electrons :     9
          Charge           :     0
          Spin multiplicity:     1
          Use of symmetry is: off; symmetry adaption is: off
          Maximum number of iterations: 200
          AO basis - number of functions:    84
                     number of shells:    25
          Convergence on energy requested:  1.00D-06
          Convergence on density requested:  1.00D-05
          Convergence on gradient requested:  5.00D-04

              XC Information
              --------------
          PerdewBurkeErnzerhof Exchange Functional  1.000          
            Perdew 1991 LDA Correlation Functional  1.000 local    
           PerdewBurkeErnz. Correlation Functional  1.000 non-local

             Grid Information
             ----------------
          Grid used for XC integration:  medium    
          Radial quadrature: Mura-Knowles        
          Angular quadrature: Lebedev. 
          Tag              B.-S. Rad. Rad. Pts. Rad. Cut. Ang. Pts.
          ---              ---------- --------- --------- ---------
          Cl                  1.00       88          11.0       590
          H                   0.35       45          10.0       434
          Grid pruning is: on 
          Number of quadrature shells:   133
          Spatial weights used:  Erf1

          Convergence Information
          -----------------------
          Convergence aids based upon iterative change in 
          total energy or number of iterations. 
          Levelshifting, if invoked, occurs when the 
          HOMO/LUMO gap drops below (HL_TOL):  1.00D-02
          DIIS, if invoked, will attempt to extrapolate 
          using up to (NFOCK): 10 stored Fock matrices.

                    Damping(40%)  Levelshifting(0.0)       DIIS
                  --------------- ------------------- ---------------
          dE  on:    start            0.00D+00            start   
          dE off:  200 iters          0.00D+00          200 iters 


      Screening Tolerance Information
      -------------------------------
          Density screening/tol_rho:  1.00D-10
          AO Gaussian exp screening on grid/accAOfunc:  14
          CD Gaussian exp screening on grid/accCDfunc:  20
          XC Gaussian exp screening on grid/accXCfunc:  20
          Schwarz screening/accCoul:  1.00D-08


 Forcing the number of linearly dependent vectors to be  0

      Superposition of Atomic Density Guess
      -------------------------------------

 Sum of atomic energies:        -459.98643297
   Time after variat. SCF:      0.8
   Time prior to 1st pass:      0.8

 Grid_pts file          = /jet/home/hmt47/nwchem_scratch//dft.gridpts.00
 Record size in doubles =  12289        No. of grid_pts per rec  =   3070
 Max. records in memory =      3        Max. recs in file   =  67550051


           Memory utilization after 1st SCF pass: 
           Heap Space remaining (MW):       33.51            33514210
          Stack Space remaining (MW):       67.11            67108340

   convergence    iter        energy       DeltaE   RMS-Dens  Diis-err    time
 ---------------- ----- ----------------- --------- --------- ---------  ------
 d=40,ls=0.0,diis     1   -460.7792700828 -4.70D+02  1.70D-02  1.24D+01     1.0
 d=40,ls=0.0,diis     2   -460.6423654702  1.37D-01  7.22D-03  1.90D+00     1.5
 d=40,ls=0.0,diis     3   -460.5834580554  5.89D-02  2.93D-03  3.32D-01     1.7
 d=40,ls=0.0,diis     4   -460.5644751151  1.90D-02  1.13D-03  5.34D-02     1.8
 d=40,ls=0.0,diis     5   -460.5565942580  7.88D-03  4.66D-04  8.59D-03     1.9
  Resetting Diis
 d=40,ls=0.0,diis     6   -460.5533934658  3.20D-03  1.87D-04  1.36D-03     2.0
 d=40,ls=0.0,diis     7   -460.5521048261  1.29D-03  8.15D-05  2.18D-04     2.2
 d=40,ls=0.0,diis     8   -460.5515877177  5.17D-04  3.61D-05  3.22D-05     2.3
 d=40,ls=0.0,diis     9   -460.5513806468  2.07D-04  1.57D-05  7.48D-06     2.4
 d=40,ls=0.0,diis    10   -460.5512982820  8.24D-05  5.90D-06  1.23D-06     2.6
 d=40,ls=0.0,diis    11   -460.5512653118  3.30D-05  2.47D-06  2.03D-07     2.7
 d=40,ls=0.0,diis    12   -460.5512521197  1.32D-05  9.91D-07  3.24D-08     2.8
 d=40,ls=0.0,diis    13   -460.5512468420  5.28D-06  3.97D-07  5.19D-09     3.0
  Singularity in Pulay matrix. Error and Fock matrices removed. 
  Singularity in Pulay matrix. Error and Fock matrices removed. 
 d=40,ls=0.0,diis    14   -460.5512447308  2.11D-06  1.59D-07  8.31D-10     3.1
  Singularity in Pulay matrix. Error and Fock matrices removed. 
  Singularity in Pulay matrix. Error and Fock matrices removed. 
  Singularity in Pulay matrix. Error and Fock matrices removed. 
  Singularity in Pulay matrix. Error and Fock matrices removed. 
  Singularity in Pulay matrix. Error and Fock matrices removed. 
 d=40,ls=0.0,diis    15   -460.5512438863  8.44D-07  6.35D-08  1.33D-10     3.2


         Total DFT energy =     -460.551243886318
      One electron energy =     -653.350244974012
           Coulomb energy =      212.301467609386
    Exchange-Corr. energy =      -28.498479754687
 Nuclear repulsion energy =        8.996013232995

 Numeric. integr. density =       18.000006888743

     Total iterative time =      2.4s



                       DFT Final Molecular Orbital Analysis
                       ------------------------------------

 Vector    1  Occ=2.000000D+00  E=-1.006910D+02
              MO Center=  4.7D-06,  1.2D-07, -2.1D-06, r^2= 3.1D-03
   Bfn.  Coefficient  Atom+Function         Bfn.  Coefficient  Atom+Function  
  ----- ------------  ---------------      ----- ------------  ---------------
     1      1.003406  1 Cl s                 61     -0.033779  2 H  s          
    10      0.026241  1 Cl px         

 Vector    2  Occ=2.000000D+00  E=-9.189048D+00
              MO Center=  1.6D-03,  4.2D-05, -7.3D-04, r^2= 6.6D-02
   Bfn.  Coefficient  Atom+Function         Bfn.  Coefficient  Atom+Function  
  ----- ------------  ---------------      ----- ------------  ---------------
     2      0.893509  1 Cl s                  4      0.115011  1 Cl s          
    61      0.039119  2 H  s                  3     -0.037871  1 Cl s          
    10     -0.025451  1 Cl px         

 Vector    3  Occ=2.000000D+00  E=-7.012847D+00
              MO Center= -1.3D-03, -3.4D-05,  5.9D-04, r^2= 5.8D-02
   Bfn.  Coefficient  Atom+Function         Bfn.  Coefficient  Atom+Function  
  ----- ------------  ---------------      ----- ------------  ---------------
     7      0.943490  1 Cl px                 9     -0.420311  1 Cl pz         
    10      0.124879  1 Cl px                62     -0.120481  2 H  s          
    16      0.066962  1 Cl px                 5      0.063565  1 Cl s          
    12     -0.055632  1 Cl pz                40     -0.043662  1 Cl fxxx       
    43     -0.043871  1 Cl fxyy              45     -0.043747  1 Cl fxzz       

 Vector    4  Occ=2.000000D+00  E=-7.002758D+00
              MO Center=  8.4D-05,  2.2D-06, -3.7D-05, r^2= 5.8D-02
   Bfn.  Coefficient  Atom+Function         Bfn.  Coefficient  Atom+Function  
  ----- ------------  ---------------      ----- ------------  ---------------
     9      0.687628  1 Cl pz                 8      0.666804  1 Cl py         
     7      0.289057  1 Cl px                12      0.047030  1 Cl pz         
    11      0.045606  1 Cl py                15      0.033403  1 Cl pz         
    14      0.032391  1 Cl py         

 Vector    5  Occ=2.000000D+00  E=-7.002758D+00
              MO Center=  8.4D-05,  2.2D-06, -3.7D-05, r^2= 5.8D-02
   Bfn.  Coefficient  Atom+Function         Bfn.  Coefficient  Atom+Function  
  ----- ------------  ---------------      ----- ------------  ---------------
     8      0.745537  1 Cl py                 9     -0.602090  1 Cl pz         
     7     -0.287533  1 Cl px                11      0.050991  1 Cl py         
    12     -0.041180  1 Cl pz                14      0.036216  1 Cl py         
    15     -0.029248  1 Cl pz         

 Vector    6  Occ=2.000000D+00  E=-8.333678D-01
              MO Center=  3.3D-01,  8.6D-03, -1.5D-01, r^2= 7.0D-01
   Bfn.  Coefficient  Atom+Function         Bfn.  Coefficient  Atom+Function  
  ----- ------------  ---------------      ----- ------------  ---------------
     3      0.558445  1 Cl s                  5      0.272661  1 Cl s          
    60      0.158935  2 H  s                 61      0.124698  2 H  s          
    10      0.086059  1 Cl px                 4      0.071379  1 Cl s          
    13      0.069724  1 Cl px                12     -0.038338  1 Cl pz         
    24     -0.035761  1 Cl dxz               62      0.033844  2 H  s          

 Vector    7  Occ=2.000000D+00  E=-4.594573D-01
              MO Center= -5.1D-02, -1.3D-03,  2.3D-02, r^2= 1.1D+00
   Bfn.  Coefficient  Atom+Function         Bfn.  Coefficient  Atom+Function  
  ----- ------------  ---------------      ----- ------------  ---------------
     5      0.385962  1 Cl s                 10     -0.273145  1 Cl px         
     3      0.267303  1 Cl s                 13     -0.251831  1 Cl px         
    61     -0.200769  2 H  s                 62     -0.185946  2 H  s          
    60     -0.171239  2 H  s                 12      0.121682  1 Cl pz         
    15      0.112187  1 Cl pz                 7      0.094979  1 Cl px         

 Vector    8  Occ=2.000000D+00  E=-3.032434D-01
              MO Center=  4.8D-02,  1.2D-03, -2.1D-02, r^2= 1.2D+00
   Bfn.  Coefficient  Atom+Function         Bfn.  Coefficient  Atom+Function  
  ----- ------------  ---------------      ----- ------------  ---------------
    12      0.315716  1 Cl pz                11      0.243996  1 Cl py         
    15      0.232865  1 Cl pz                18      0.200847  1 Cl pz         
    14      0.179966  1 Cl py                17      0.155222  1 Cl py         
    10      0.134327  1 Cl px                13      0.099076  1 Cl px         
    16      0.085454  1 Cl px                 9     -0.061153  1 Cl pz         

 Vector    9  Occ=2.000000D+00  E=-3.032434D-01
              MO Center=  4.8D-02,  1.2D-03, -2.1D-02, r^2= 1.2D+00
   Bfn.  Coefficient  Atom+Function         Bfn.  Coefficient  Atom+Function  
  ----- ------------  ---------------      ----- ------------  ---------------
    11      0.342959  1 Cl py                14      0.252959  1 Cl py         
    12     -0.219641  1 Cl pz                17      0.218178  1 Cl py         
    15     -0.162002  1 Cl pz                18     -0.139728  1 Cl pz         
    10     -0.106730  1 Cl px                13     -0.078721  1 Cl px         
    16     -0.067898  1 Cl px                 8     -0.066430  1 Cl py         

 Vector   10  Occ=0.000000D+00  E=-1.583015D-02
              MO Center=  1.0D+00,  2.6D-02, -4.5D-01, r^2= 1.0D+01
   Bfn.  Coefficient  Atom+Function         Bfn.  Coefficient  Atom+Function  
  ----- ------------  ---------------      ----- ------------  ---------------
    62      1.437816  2 H  s                 63      1.315534  2 H  s          
     5     -1.103639  1 Cl s                  6     -0.861198  1 Cl s          
    16     -0.487506  1 Cl px                70     -0.248007  2 H  px         
    18      0.217177  1 Cl pz                19     -0.216930  1 Cl px         
    61      0.174475  2 H  s                  3     -0.158058  1 Cl s          

 Vector   11  Occ=0.000000D+00  E= 4.280401D-02
              MO Center= -9.4D-01, -2.4D-02,  4.2D-01, r^2= 9.4D+00
   Bfn.  Coefficient  Atom+Function         Bfn.  Coefficient  Atom+Function  
  ----- ------------  ---------------      ----- ------------  ---------------
    62      5.547386  2 H  s                  5     -2.563047  1 Cl s          
    16     -1.874126  1 Cl px                19     -1.394544  1 Cl px         
    34     -1.274451  1 Cl dxx               70     -1.022401  2 H  px         
    39     -0.882486  1 Cl dzz               18      0.834896  1 Cl pz         
    37     -0.785766  1 Cl dyy               21      0.621249  1 Cl pz         

 Vector   12  Occ=0.000000D+00  E= 5.340637D-02
              MO Center= -4.4D-02, -1.1D-03,  2.0D-02, r^2= 1.1D+01
   Bfn.  Coefficient  Atom+Function         Bfn.  Coefficient  Atom+Function  
  ----- ------------  ---------------      ----- ------------  ---------------
    21      1.203102  1 Cl pz                18     -0.591548  1 Cl pz         
    19      0.528874  1 Cl px                12     -0.506395  1 Cl pz         
    52      0.279346  1 Cl fxxz              20      0.273764  1 Cl py         
    16     -0.260039  1 Cl px                59      0.259568  1 Cl fzzz       
    57      0.249772  1 Cl fyyz              10     -0.222607  1 Cl px         

 Vector   13  Occ=0.000000D+00  E= 5.340637D-02
              MO Center= -4.4D-02, -1.1D-03,  2.0D-02, r^2= 1.1D+01
   Bfn.  Coefficient  Atom+Function         Bfn.  Coefficient  Atom+Function  
  ----- ------------  ---------------      ----- ------------  ---------------
    20      1.313832  1 Cl py                17     -0.645992  1 Cl py         
    11     -0.553002  1 Cl py                51      0.325403  1 Cl fxxy       
    58      0.283678  1 Cl fyzz              56      0.273037  1 Cl fyyy       
    21     -0.237492  1 Cl pz                 8     -0.184798  1 Cl py         
    71     -0.170955  2 H  py                46      0.168579  1 Cl fyyy       

 Vector   14  Occ=0.000000D+00  E= 7.454886D-02
              MO Center=  5.7D-01,  1.5D-02, -2.5D-01, r^2= 4.7D+00
   Bfn.  Coefficient  Atom+Function         Bfn.  Coefficient  Atom+Function  
  ----- ------------  ---------------      ----- ------------  ---------------
    62     -5.161003  2 H  s                  5      5.029595  1 Cl s          
    70      2.275086  2 H  px                16      2.118834  1 Cl px         
    34      1.546396  1 Cl dxx               72     -1.013517  2 H  pz         
    18     -0.943909  1 Cl pz                61     -0.911622  2 H  s          
    36     -0.851753  1 Cl dxz               39      0.780135  1 Cl dzz        

 Vector   15  Occ=0.000000D+00  E= 9.617812D-02
              MO Center=  1.1D+00,  2.8D-02, -4.8D-01, r^2= 1.5D+01
   Bfn.  Coefficient  Atom+Function         Bfn.  Coefficient  Atom+Function  
  ----- ------------  ---------------      ----- ------------  ---------------
     6      7.756276  1 Cl s                 63     -2.908275  2 H  s          
    62     -2.796266  2 H  s                 61     -1.125217  2 H  s          
    34     -1.059048  1 Cl dxx               39     -1.025489  1 Cl dzz        
    37     -1.017208  1 Cl dyy               19      0.993268  1 Cl px         
     5      0.851222  1 Cl s                 10      0.772071  1 Cl px         

 Vector   16  Occ=0.000000D+00  E= 1.351054D-01
              MO Center=  6.3D-01,  1.6D-02, -2.8D-01, r^2= 4.6D+00
   Bfn.  Coefficient  Atom+Function         Bfn.  Coefficient  Atom+Function  
  ----- ------------  ---------------      ----- ------------  ---------------
    71      1.587595  2 H  py                17     -1.291626  1 Cl py         
    72      1.054421  2 H  pz                18     -0.857849  1 Cl pz         
    11     -0.490344  1 Cl py                70      0.428608  2 H  px         
    20     -0.363276  1 Cl py                16     -0.348705  1 Cl px         
    80     -0.337236  2 H  dxy               12     -0.325668  1 Cl pz         

 Vector   17  Occ=0.000000D+00  E= 1.351054D-01
              MO Center=  6.3D-01,  1.6D-02, -2.8D-01, r^2= 4.6D+00
   Bfn.  Coefficient  Atom+Function         Bfn.  Coefficient  Atom+Function  
  ----- ------------  ---------------      ----- ------------  ---------------
    72      1.439658  2 H  pz                18     -1.171268  1 Cl pz         
    71     -1.137266  2 H  py                17      0.925250  1 Cl py         
    70      0.670804  2 H  px                16     -0.545748  1 Cl px         
    12     -0.444653  1 Cl pz                11      0.351256  1 Cl py         
    21     -0.329425  1 Cl pz                20      0.260231  1 Cl py         

 Vector   18  Occ=0.000000D+00  E= 1.982547D-01
              MO Center=  2.6D-03,  6.6D-05, -1.1D-03, r^2= 3.2D+00
   Bfn.  Coefficient  Atom+Function         Bfn.  Coefficient  Atom+Function  
  ----- ------------  ---------------      ----- ------------  ---------------
    37      0.799675  1 Cl dyy               39     -0.667552  1 Cl dzz        
    36     -0.595170  1 Cl dxz               25      0.146350  1 Cl dyy        
    34     -0.132123  1 Cl dxx               27     -0.122170  1 Cl dzz        
    24     -0.108923  1 Cl dxz               53      0.060229  1 Cl fxyy       
    31      0.056585  1 Cl dyy               33     -0.047236  1 Cl dzz        

 Vector   19  Occ=0.000000D+00  E= 1.982550D-01
              MO Center=  2.6D-03,  6.6D-05, -1.1D-03, r^2= 3.2D+00
   Bfn.  Coefficient  Atom+Function         Bfn.  Coefficient  Atom+Function  
  ----- ------------  ---------------      ----- ------------  ---------------
    38      1.461354  1 Cl dyz               35      0.651014  1 Cl dxy        
    26      0.267444  1 Cl dyz               23      0.119143  1 Cl dxy        
    32      0.103399  1 Cl dyz               54      0.088281  1 Cl fxyz       
    83     -0.062609  2 H  dyz               51      0.049065  1 Cl fxxy       
    58     -0.049065  1 Cl fyzz              29      0.046063  1 Cl dxy        

 Vector   20  Occ=0.000000D+00  E= 2.322545D-01
              MO Center=  2.4D-03,  6.1D-05, -1.0D-03, r^2= 8.7D+00
   Bfn.  Coefficient  Atom+Function         Bfn.  Coefficient  Atom+Function  
  ----- ------------  ---------------      ----- ------------  ---------------
    62      6.671220  2 H  s                  6     -3.900950  1 Cl s          
    19     -1.785698  1 Cl px                 5      1.245228  1 Cl s          
    36      0.892890  1 Cl dxz               79     -0.885513  2 H  dxx        
    34     -0.869585  1 Cl dxx               61     -0.871290  2 H  s          
    70      0.846791  2 H  px                21      0.795503  1 Cl pz         

 Vector   21  Occ=0.000000D+00  E= 2.737422D-01
              MO Center=  1.1D+00,  2.9D-02, -5.0D-01, r^2= 8.1D+00
   Bfn.  Coefficient  Atom+Function         Bfn.  Coefficient  Atom+Function  
  ----- ------------  ---------------      ----- ------------  ---------------
    62     40.230464  2 H  s                  5    -24.510077  1 Cl s          
    16    -15.121008  1 Cl px                70    -11.117507  2 H  px         
    34     -8.127864  1 Cl dxx               18      6.736188  1 Cl pz         
    39     -5.892870  1 Cl dzz                6     -5.471270  1 Cl s          
    37     -5.341370  1 Cl dyy               72      4.952687  2 H  pz         

 Vector   22  Occ=0.000000D+00  E= 3.024285D-01
              MO Center=  5.0D-02,  1.3D-03, -2.2D-02, r^2= 6.9D+00
   Bfn.  Coefficient  Atom+Function         Bfn.  Coefficient  Atom+Function  
  ----- ------------  ---------------      ----- ------------  ---------------
    71      2.113319  2 H  py                72      1.840665  2 H  pz         
    35     -1.798939  1 Cl dxy               36     -1.264788  1 Cl dxz        
    20     -0.900778  1 Cl py                21     -0.784562  1 Cl pz         
    70      0.765250  2 H  px                38      0.753748  1 Cl dyz        
    39      0.691520  1 Cl dzz               51     -0.669995  1 Cl fxxy       

 Vector   23  Occ=0.000000D+00  E= 3.024285D-01
              MO Center=  5.0D-02,  1.3D-03, -2.2D-02, r^2= 6.9D+00
   Bfn.  Coefficient  Atom+Function         Bfn.  Coefficient  Atom+Function  
  ----- ------------  ---------------      ----- ------------  ---------------
    71      1.992218  2 H  py                72     -1.911788  2 H  pz         
    35     -1.660365  1 Cl dxy               36      1.272915  1 Cl dxz        
    70     -0.903276  2 H  px                20     -0.849160  1 Cl py         
    21      0.814877  1 Cl pz                38      0.790218  1 Cl dyz        
    34      0.761757  1 Cl dxx               39     -0.718242  1 Cl dzz        

 Vector   24  Occ=0.000000D+00  E= 3.681513D-01
              MO Center=  3.6D-01,  9.4D-03, -1.6D-01, r^2= 9.6D+00
   Bfn.  Coefficient  Atom+Function         Bfn.  Coefficient  Atom+Function  
  ----- ------------  ---------------      ----- ------------  ---------------
     6     10.802210  1 Cl s                 34     -4.738051  1 Cl dxx        
    39     -3.960097  1 Cl dzz               37     -3.768131  1 Cl dyy        
    61     -2.286796  2 H  s                 63     -2.084442  2 H  s          
    16     -2.059548  1 Cl px                10      1.806230  1 Cl px         
    67      1.516045  2 H  px                31     -1.357765  1 Cl dyy        

 Vector   25  Occ=0.000000D+00  E= 3.771450D-01
              MO Center=  6.0D-01,  1.6D-02, -2.7D-01, r^2= 5.6D+00
   Bfn.  Coefficient  Atom+Function         Bfn.  Coefficient  Atom+Function  
  ----- ------------  ---------------      ----- ------------  ---------------
    17      4.044269  1 Cl py                18     -3.188309  1 Cl pz         
    11      1.728631  1 Cl py                71     -1.683448  2 H  py         
    16     -1.525096  1 Cl px                56     -1.501410  1 Cl fyyy       
    58     -1.484663  1 Cl fyzz              51     -1.425442  1 Cl fxxy       
    12     -1.362770  1 Cl pz                72      1.327149  2 H  pz         

 Vector   26  Occ=0.000000D+00  E= 3.771450D-01
              MO Center=  6.0D-01,  1.6D-02, -2.7D-01, r^2= 5.6D+00
   Bfn.  Coefficient  Atom+Function         Bfn.  Coefficient  Atom+Function  
  ----- ------------  ---------------      ----- ------------  ---------------
    18      3.729311  1 Cl pz                17      3.532009  1 Cl py         
    12      1.594009  1 Cl pz                16      1.569871  1 Cl px         
    72     -1.552345  2 H  pz                11      1.509677  1 Cl py         
    71     -1.470217  2 H  py                57     -1.386045  1 Cl fyyz       
    59     -1.370342  1 Cl fzzz              52     -1.339850  1 Cl fxxz       

 Vector   27  Occ=0.000000D+00  E= 4.002497D-01
              MO Center= -2.1D-01, -5.4D-03,  9.2D-02, r^2= 5.1D+00
   Bfn.  Coefficient  Atom+Function         Bfn.  Coefficient  Atom+Function  
  ----- ------------  ---------------      ----- ------------  ---------------
    61      8.505117  2 H  s                 62     -6.625172  2 H  s          
     5     -3.374470  1 Cl s                 36      2.893297  1 Cl dxz        
    37      2.122211  1 Cl dyy               50     -2.105449  1 Cl fxxx       
    70      1.856327  2 H  px                55     -1.809363  1 Cl fxzz       
    82      1.818202  2 H  dyy               84      1.777857  2 H  dzz        

 Vector   28  Occ=0.000000D+00  E= 6.172847D-01
              MO Center=  2.9D-01,  7.5D-03, -1.3D-01, r^2= 3.4D+00
   Bfn.  Coefficient  Atom+Function         Bfn.  Coefficient  Atom+Function  
  ----- ------------  ---------------      ----- ------------  ---------------
    29      1.378831  1 Cl dxy               80      1.282158  2 H  dxy        
    35     -1.181928  1 Cl dxy               30      1.023047  1 Cl dxz        
    81      0.951319  2 H  dxz               36     -0.876951  1 Cl dxz        
    51      0.854210  1 Cl fxxy              32     -0.575647  1 Cl dyz        
    52      0.578105  1 Cl fxxz              33     -0.559839  1 Cl dzz        

 Vector   29  Occ=0.000000D+00  E= 6.172847D-01
              MO Center=  2.9D-01,  7.5D-03, -1.3D-01, r^2= 3.4D+00
   Bfn.  Coefficient  Atom+Function         Bfn.  Coefficient  Atom+Function  
  ----- ------------  ---------------      ----- ------------  ---------------
    29      1.345827  1 Cl dxy               80      1.251468  2 H  dxy        
    35     -1.153638  1 Cl dxy               30     -0.973673  1 Cl dxz        
    81     -0.905406  2 H  dxz               36      0.834629  1 Cl dxz        
    51      0.827271  1 Cl fxxy              32     -0.638269  1 Cl dyz        
    83     -0.593519  2 H  dyz               28     -0.585132  1 Cl dxx        

 Vector   30  Occ=0.000000D+00  E= 6.342393D-01
              MO Center=  3.3D-01,  8.6D-03, -1.5D-01, r^2= 6.8D+00
   Bfn.  Coefficient  Atom+Function         Bfn.  Coefficient  Atom+Function  
  ----- ------------  ---------------      ----- ------------  ---------------
    62     65.332755  2 H  s                  5    -38.494309  1 Cl s          
    16    -33.082896  1 Cl px                34    -16.334137  1 Cl dxx        
    18     14.737948  1 Cl pz                70    -14.699257  2 H  px         
    39     -9.932993  1 Cl dzz               37     -8.353465  1 Cl dyy        
     6     -7.595046  1 Cl s                 36      7.115319  1 Cl dxz        

 Vector   31  Occ=0.000000D+00  E= 6.388455D-01
              MO Center=  3.3D-02,  8.6D-04, -1.5D-02, r^2= 2.8D+00
   Bfn.  Coefficient  Atom+Function         Bfn.  Coefficient  Atom+Function  
  ----- ------------  ---------------      ----- ------------  ---------------
    38      1.877748  1 Cl dyz               32     -1.345944  1 Cl dyz        
    83     -1.014747  2 H  dyz               35      0.836507  1 Cl dxy        
    29     -0.599597  1 Cl dxy               80     -0.452054  2 H  dxy        
    26     -0.384854  1 Cl dyz               54      0.285847  1 Cl fxyz       
    23     -0.171446  1 Cl dxy               51      0.158869  1 Cl fxxy       

 Vector   32  Occ=0.000000D+00  E= 6.388467D-01
              MO Center=  3.3D-02,  8.6D-04, -1.5D-02, r^2= 2.8D+00
   Bfn.  Coefficient  Atom+Function         Bfn.  Coefficient  Atom+Function  
  ----- ------------  ---------------      ----- ------------  ---------------
    37      1.027536  1 Cl dyy               39     -0.857767  1 Cl dzz        
    36     -0.764757  1 Cl dxz               31     -0.736522  1 Cl dyy        
    33      0.614835  1 Cl dzz               82     -0.555285  2 H  dyy        
    30      0.548166  1 Cl dxz               84      0.463542  2 H  dzz        
    81      0.413278  2 H  dxz               25     -0.210598  1 Cl dyy        

 Vector   33  Occ=0.000000D+00  E= 6.765507D-01
              MO Center=  6.4D-01,  1.7D-02, -2.9D-01, r^2= 5.1D+00
   Bfn.  Coefficient  Atom+Function         Bfn.  Coefficient  Atom+Function  
  ----- ------------  ---------------      ----- ------------  ---------------
     5      7.844193  1 Cl s                 16      4.364747  1 Cl px         
     6     -3.300349  1 Cl s                 70      3.294806  2 H  px         
    79     -2.498570  2 H  dxx               62     -2.345062  2 H  s          
    37      2.108277  1 Cl dyy               39      1.992798  1 Cl dzz        
    18     -1.944431  1 Cl pz                50     -1.807190  1 Cl fxxx       

 Vector   34  Occ=0.000000D+00  E= 7.518842D-01
              MO Center=  7.4D-01,  1.9D-02, -3.3D-01, r^2= 2.3D+00
   Bfn.  Coefficient  Atom+Function         Bfn.  Coefficient  Atom+Function  
  ----- ------------  ---------------      ----- ------------  ---------------
    82      0.988829  2 H  dyy               84     -0.825450  2 H  dzz        
    81     -0.735959  2 H  dxz               31     -0.626191  1 Cl dyy        
    33      0.522729  1 Cl dzz               30      0.466057  1 Cl dxz        
    79     -0.163379  2 H  dxx               53      0.145117  1 Cl fxyy       
    28      0.103462  1 Cl dxx               52     -0.097434  1 Cl fxxz       

 Vector   35  Occ=0.000000D+00  E= 7.518843D-01
              MO Center=  7.4D-01,  1.9D-02, -3.3D-01, r^2= 2.3D+00
   Bfn.  Coefficient  Atom+Function         Bfn.  Coefficient  Atom+Function  
  ----- ------------  ---------------      ----- ------------  ---------------
    83      1.807010  2 H  dyz               32     -1.144309  1 Cl dyz        
    80      0.805011  2 H  dxy               29     -0.509782  1 Cl dxy        
    54      0.212681  1 Cl fxyz              38     -0.174781  1 Cl dyz        
    26     -0.166963  1 Cl dyz               51      0.118207  1 Cl fxxy       
    58     -0.118204  1 Cl fyzz              35     -0.077864  1 Cl dxy        

 Vector   36  Occ=0.000000D+00  E= 7.892157D-01
              MO Center=  7.0D-01,  1.8D-02, -3.1D-01, r^2= 4.0D+00
   Bfn.  Coefficient  Atom+Function         Bfn.  Coefficient  Atom+Function  
  ----- ------------  ---------------      ----- ------------  ---------------
    71     -2.593835  2 H  py                35      2.476668  1 Cl dxy        
    80      2.030543  2 H  dxy               72     -1.950142  2 H  pz         
    17      1.552228  1 Cl py                36      1.509012  1 Cl dxz        
    51      1.508842  1 Cl fxxy              81      1.237192  2 H  dxz        
    18      1.167022  1 Cl pz                38     -1.046711  1 Cl dyz        

 Vector   37  Occ=0.000000D+00  E= 7.892157D-01
              MO Center=  7.0D-01,  1.8D-02, -3.1D-01, r^2= 4.0D+00
   Bfn.  Coefficient  Atom+Function         Bfn.  Coefficient  Atom+Function  
  ----- ------------  ---------------      ----- ------------  ---------------
    72      2.349737  2 H  pz                71     -2.106970  2 H  py         
    35      1.968799  1 Cl dxy               36     -1.761029  1 Cl dxz        
    80      1.614157  2 H  dxy               81     -1.443813  2 H  dxz        
    18     -1.406153  1 Cl pz                17      1.260874  1 Cl py         
    51      1.186354  1 Cl fxxy              70      1.101348  2 H  px         

 Vector   38  Occ=0.000000D+00  E= 9.159484D-01
              MO Center=  9.2D-01,  2.4D-02, -4.1D-01, r^2= 4.9D+00
   Bfn.  Coefficient  Atom+Function         Bfn.  Coefficient  Atom+Function  
  ----- ------------  ---------------      ----- ------------  ---------------
    16      8.823118  1 Cl px                34      7.831721  1 Cl dxx        
     6     -7.566660  1 Cl s                  5     -6.978177  1 Cl s          
    62     -6.699960  2 H  s                 61      5.843523  2 H  s          
    39      5.772875  1 Cl dzz               37      5.264840  1 Cl dyy        
    18     -3.930570  1 Cl pz                67     -3.765886  2 H  px         

 Vector   39  Occ=0.000000D+00  E= 9.452165D-01
              MO Center=  3.0D-11,  9.2D-13,  3.1D-11, r^2= 2.2D+00
   Bfn.  Coefficient  Atom+Function         Bfn.  Coefficient  Atom+Function  
  ----- ------------  ---------------      ----- ------------  ---------------
    57      1.686669  1 Cl fyyz              58      1.534440  1 Cl fyzz       
    54      1.279773  1 Cl fxyz              53      0.797982  1 Cl fxyy       
    55     -0.654009  1 Cl fxzz              56     -0.599658  1 Cl fyyy       
    59     -0.459627  1 Cl fzzz              52     -0.307931  1 Cl fxxz       
    51      0.264384  1 Cl fxxy              47     -0.219320  1 Cl fyyz       

 Vector   40  Occ=0.000000D+00  E= 9.452165D-01
              MO Center= -1.4D-12, -1.7D-11, -4.2D-11, r^2= 2.2D+00
   Bfn.  Coefficient  Atom+Function         Bfn.  Coefficient  Atom+Function  
  ----- ------------  ---------------      ----- ------------  ---------------
    57      1.661574  1 Cl fyyz              58     -1.525135  1 Cl fyzz       
    54     -1.444932  1 Cl fxyz              53      0.691900  1 Cl fxyy       
    56      0.621684  1 Cl fyyy              55     -0.591671  1 Cl fxzz       
    59     -0.472279  1 Cl fzzz              51     -0.339762  1 Cl fxxy       
    52     -0.244873  1 Cl fxxz              47     -0.216057  1 Cl fyyz       

 Vector   41  Occ=0.000000D+00  E= 1.032519D+00
              MO Center=  3.0D-01,  7.8D-03, -1.3D-01, r^2= 3.4D+00
   Bfn.  Coefficient  Atom+Function         Bfn.  Coefficient  Atom+Function  
  ----- ------------  ---------------      ----- ------------  ---------------
     5     13.693584  1 Cl s                 61    -12.446516  2 H  s          
    16      6.224782  1 Cl px                82     -3.697858  2 H  dyy        
    36     -3.570382  1 Cl dxz               84     -3.495063  2 H  dzz        
    34      3.475501  1 Cl dxx               52     -3.052520  1 Cl fxxz       
    50      2.923662  1 Cl fxxx              18     -2.773050  1 Cl pz         

 Vector   42  Occ=0.000000D+00  E= 1.121508D+00
              MO Center=  5.8D-02,  1.5D-03, -2.6D-02, r^2= 3.8D+00
   Bfn.  Coefficient  Atom+Function         Bfn.  Coefficient  Atom+Function  
  ----- ------------  ---------------      ----- ------------  ---------------
    11      5.152187  1 Cl py                12     -4.477842  1 Cl pz         
    17      3.946383  1 Cl py                18     -3.429860  1 Cl pz         
    56     -3.225300  1 Cl fyyy              58     -3.132670  1 Cl fyzz       
    51     -2.809370  1 Cl fxxy              57      2.793366  1 Cl fyyz       
    59      2.730043  1 Cl fzzz              52      2.590287  1 Cl fxxz       

 Vector   43  Occ=0.000000D+00  E= 1.121508D+00
              MO Center=  5.8D-02,  1.5D-03, -2.6D-02, r^2= 3.8D+00
   Bfn.  Coefficient  Atom+Function         Bfn.  Coefficient  Atom+Function  
  ----- ------------  ---------------      ----- ------------  ---------------
    11      4.954992  1 Cl py                12      4.755330  1 Cl pz         
    17      3.795340  1 Cl py                18      3.642406  1 Cl pz         
    56     -3.101856  1 Cl fyyy              58     -3.030035  1 Cl fyzz       
    57     -2.986332  1 Cl fyyz              59     -2.899223  1 Cl fzzz       
    52     -2.730941  1 Cl fxxz              51     -2.684579  1 Cl fxxy       

 Vector   44  Occ=0.000000D+00  E= 1.157413D+00
              MO Center=  2.7D-01,  6.9D-03, -1.2D-01, r^2= 2.8D+00
   Bfn.  Coefficient  Atom+Function         Bfn.  Coefficient  Atom+Function  
  ----- ------------  ---------------      ----- ------------  ---------------
    54      1.927836  1 Cl fxyz              51     -1.689828  1 Cl fxxy       
    55     -1.676404  1 Cl fxzz              80      1.535442  2 H  dxy        
    11      1.217796  1 Cl py                81     -1.131939  2 H  dxz        
    12     -1.124892  1 Cl pz                52      0.795411  1 Cl fxxz       
    50      0.759706  1 Cl fxxx              83     -0.729012  2 H  dyz        

 Vector   45  Occ=0.000000D+00  E= 1.157413D+00
              MO Center=  2.7D-01,  6.9D-03, -1.2D-01, r^2= 2.8D+00
   Bfn.  Coefficient  Atom+Function         Bfn.  Coefficient  Atom+Function  
  ----- ------------  ---------------      ----- ------------  ---------------
    51      1.815564  1 Cl fxxy              54     -1.808316  1 Cl fxyz       
    55     -1.679932  1 Cl fxzz              80     -1.601879  2 H  dxy        
    11     -1.243953  1 Cl py                81     -1.167961  2 H  dxz        
    12     -1.124694  1 Cl pz                52      0.892099  1 Cl fxxz       
    50      0.668642  1 Cl fxxx              83      0.669564  2 H  dyz        

 Vector   46  Occ=0.000000D+00  E= 1.189669D+00
              MO Center= -1.2D-01, -3.0D-03,  5.2D-02, r^2= 4.0D+00
   Bfn.  Coefficient  Atom+Function         Bfn.  Coefficient  Atom+Function  
  ----- ------------  ---------------      ----- ------------  ---------------
     5     11.701606  1 Cl s                 61     -7.341516  2 H  s          
     6      5.972408  1 Cl s                 10      4.849916  1 Cl px         
    62     -4.696508  2 H  s                 16      4.450386  1 Cl px         
    67      2.996524  2 H  px                 7      2.243770  1 Cl px         
    37     -2.229815  1 Cl dyy               12     -2.160567  1 Cl pz         

 Vector   47  Occ=0.000000D+00  E= 1.201686D+00
              MO Center=  1.1D-01,  2.9D-03, -5.0D-02, r^2= 2.8D+00
   Bfn.  Coefficient  Atom+Function         Bfn.  Coefficient  Atom+Function  
  ----- ------------  ---------------      ----- ------------  ---------------
    54      4.174157  1 Cl fxyz              83     -2.427394  2 H  dyz        
    51      2.319927  1 Cl fxxy              58     -2.319936  1 Cl fyzz       
    80     -1.081366  2 H  dxy               38      0.973887  1 Cl dyz        
    32      0.664953  1 Cl dyz               35      0.433851  1 Cl dxy        
    44     -0.426755  1 Cl fxyz              29      0.296226  1 Cl dxy        

 Vector   48  Occ=0.000000D+00  E= 1.201689D+00
              MO Center=  1.1D-01,  2.9D-03, -5.0D-02, r^2= 2.8D+00
   Bfn.  Coefficient  Atom+Function         Bfn.  Coefficient  Atom+Function  
  ----- ------------  ---------------      ----- ------------  ---------------
    53      2.848119  1 Cl fxyy              52     -1.912262  1 Cl fxxz       
    55     -1.434847  1 Cl fxzz              82     -1.328312  2 H  dyy        
    57     -1.268802  1 Cl fyyz              84      1.108850  2 H  dzz        
    59      1.060355  1 Cl fzzz              81      0.988613  2 H  dxz        
    37      0.532932  1 Cl dyy               50     -0.471091  1 Cl fxxx       

 Vector   49  Occ=0.000000D+00  E= 1.397857D+00
              MO Center=  3.3D-01,  8.6D-03, -1.5D-01, r^2= 3.9D+00
   Bfn.  Coefficient  Atom+Function         Bfn.  Coefficient  Atom+Function  
  ----- ------------  ---------------      ----- ------------  ---------------
    62     50.554656  2 H  s                 16    -28.261180  1 Cl px         
     5    -24.043031  1 Cl s                 34    -13.089679  1 Cl dxx        
    18     12.589943  1 Cl pz                70    -11.745287  2 H  px         
    39     -8.656121  1 Cl dzz               53      8.523697  1 Cl fxyy       
    50      8.441666  1 Cl fxxx              55      8.474925  1 Cl fxzz       

 Vector   50  Occ=0.000000D+00  E= 1.490251D+00
              MO Center=  5.8D-02,  1.5D-03, -2.6D-02, r^2= 3.6D+00
   Bfn.  Coefficient  Atom+Function         Bfn.  Coefficient  Atom+Function  
  ----- ------------  ---------------      ----- ------------  ---------------
    61    -18.588472  2 H  s                  5     17.934635  1 Cl s          
    62    -17.453089  2 H  s                 16      8.382492  1 Cl px         
     6      6.025477  1 Cl s                 52     -5.813265  1 Cl fxxz       
    30     -5.067838  1 Cl dxz               28      4.453290  1 Cl dxx        
    50      3.915470  1 Cl fxxx              36     -3.775618  1 Cl dxz        

 Vector   51  Occ=0.000000D+00  E= 1.666556D+00
              MO Center=  6.6D-01,  1.7D-02, -3.0D-01, r^2= 2.5D+00
   Bfn.  Coefficient  Atom+Function         Bfn.  Coefficient  Atom+Function  
  ----- ------------  ---------------      ----- ------------  ---------------
    68     -3.690721  2 H  py                51      3.595322  1 Cl fxxy       
    69     -3.324568  2 H  pz                29      3.107617  1 Cl dxy        
    54     -2.783232  1 Cl fxyz              80      2.482368  2 H  dxy        
    55     -2.274780  1 Cl fxzz              30      2.257675  1 Cl dxz        
    52      2.090138  1 Cl fxxz              81      1.803433  2 H  dxz        

 Vector   52  Occ=0.000000D+00  E= 1.666556D+00
              MO Center=  6.6D-01,  1.7D-02, -3.0D-01, r^2= 2.5D+00
   Bfn.  Coefficient  Atom+Function         Bfn.  Coefficient  Atom+Function  
  ----- ------------  ---------------      ----- ------------  ---------------
    68     -3.599632  2 H  py                51      3.372334  1 Cl fxxy       
    69      3.337606  2 H  pz                29      2.967604  1 Cl dxy        
    54     -2.956096  1 Cl fxyz              80      2.370525  2 H  dxy        
    55      2.236720  1 Cl fxzz              30     -2.196241  1 Cl dxz        
    52     -1.949297  1 Cl fxxz              81     -1.754360  2 H  dxz        

 Vector   53  Occ=0.000000D+00  E= 1.967957D+00
              MO Center=  7.7D-01,  2.0D-02, -3.4D-01, r^2= 3.5D+00
   Bfn.  Coefficient  Atom+Function         Bfn.  Coefficient  Atom+Function  
  ----- ------------  ---------------      ----- ------------  ---------------
     5     32.607571  1 Cl s                 61    -19.396596  2 H  s          
    31     -8.735222  1 Cl dyy               67      7.960020  2 H  px         
    33     -7.510110  1 Cl dzz               34     -7.168479  1 Cl dxx        
     6      6.613940  1 Cl s                 39     -6.629203  1 Cl dzz        
    37     -6.496133  1 Cl dyy               62      6.307956  2 H  s          

 Vector   54  Occ=0.000000D+00  E= 2.107289D+00
              MO Center=  4.0D-02,  1.0D-03, -1.8D-02, r^2= 1.3D+00
   Bfn.  Coefficient  Atom+Function         Bfn.  Coefficient  Atom+Function  
  ----- ------------  ---------------      ----- ------------  ---------------
    31      1.298048  1 Cl dyy               25     -1.125183  1 Cl dyy        
    33     -1.083585  1 Cl dzz               30     -0.966090  1 Cl dxz        
    27      0.939280  1 Cl dzz               24      0.837433  1 Cl dxz        
    37     -0.464678  1 Cl dyy               39      0.387904  1 Cl dzz        
    36      0.345843  1 Cl dxz               53      0.227465  1 Cl fxyy       

 Vector   55  Occ=0.000000D+00  E= 2.107293D+00
              MO Center=  4.0D-02,  1.0D-03, -1.8D-02, r^2= 1.3D+00
   Bfn.  Coefficient  Atom+Function         Bfn.  Coefficient  Atom+Function  
  ----- ------------  ---------------      ----- ------------  ---------------
    32      2.372090  1 Cl dyz               26     -2.056190  1 Cl dyz        
    29      1.056731  1 Cl dxy               23     -0.916003  1 Cl dxy        
    38     -0.849162  1 Cl dyz               35     -0.378289  1 Cl dxy        
    83     -0.341581  2 H  dyz               54      0.333377  1 Cl fxyz       
    51      0.185286  1 Cl fxxy              58     -0.185286  1 Cl fyzz       

 Vector   56  Occ=0.000000D+00  E= 2.161888D+00
              MO Center=  1.7D-02,  4.5D-04, -7.8D-03, r^2= 1.4D+00
   Bfn.  Coefficient  Atom+Function         Bfn.  Coefficient  Atom+Function  
  ----- ------------  ---------------      ----- ------------  ---------------
    29      2.602641  1 Cl dxy               30      1.926318  1 Cl dxz        
    23     -1.384986  1 Cl dxy               32     -1.086759  1 Cl dyz        
    51      1.090186  1 Cl fxxy              33     -1.054092  1 Cl dzz        
    24     -1.025083  1 Cl dxz               35     -1.028417  1 Cl dxy        
    28      0.987341  1 Cl dxx               68     -0.893933  2 H  py         

 Vector   57  Occ=0.000000D+00  E= 2.161888D+00
              MO Center=  1.7D-02,  4.5D-04, -7.8D-03, r^2= 1.4D+00
   Bfn.  Coefficient  Atom+Function         Bfn.  Coefficient  Atom+Function  
  ----- ------------  ---------------      ----- ------------  ---------------
    29      2.533852  1 Cl dxy               30     -1.838052  1 Cl dxz        
    23     -1.348380  1 Cl dxy               32     -1.201888  1 Cl dyz        
    28     -1.104367  1 Cl dxx               33      1.037994  1 Cl dzz        
    51      1.040480  1 Cl fxxy              35     -1.001235  1 Cl dxy        
    24      0.978113  1 Cl dxz               54     -0.957900  1 Cl fxyz       

 Vector   58  Occ=0.000000D+00  E= 2.482343D+00
              MO Center=  1.1D-01,  2.7D-03, -4.7D-02, r^2= 2.6D+00
   Bfn.  Coefficient  Atom+Function         Bfn.  Coefficient  Atom+Function  
  ----- ------------  ---------------      ----- ------------  ---------------
    16      9.473685  1 Cl px                62     -9.045958  2 H  s          
    34      7.602594  1 Cl dxx               39      4.707880  1 Cl dzz        
    18     -4.220389  1 Cl pz                28      4.240565  1 Cl dxx        
    37      3.993588  1 Cl dyy                6     -3.818487  1 Cl s          
    33      3.781132  1 Cl dzz               31      3.667763  1 Cl dyy        

 Vector   59  Occ=0.000000D+00  E= 2.633110D+00
              MO Center= -4.6D-10,  3.3D-10, -1.0D-09, r^2= 1.2D+00
   Bfn.  Coefficient  Atom+Function         Bfn.  Coefficient  Atom+Function  
  ----- ------------  ---------------      ----- ------------  ---------------
    48      2.205171  1 Cl fyzz              44      1.871901  1 Cl fxyz       
    47      1.794195  1 Cl fyyz              58     -1.367420  1 Cl fyzz       
    54     -1.160661  1 Cl fxyz              57     -1.112563  1 Cl fyyz       
    43      0.866623  1 Cl fxyy              46     -0.866632  1 Cl fyyy       
    45     -0.705579  1 Cl fxzz              53     -0.537378  1 Cl fxyy       

 Vector   60  Occ=0.000000D+00  E= 2.633110D+00
              MO Center=  4.3D-10,  1.9D-10,  9.6D-10, r^2= 1.2D+00
   Bfn.  Coefficient  Atom+Function         Bfn.  Coefficient  Atom+Function  
  ----- ------------  ---------------      ----- ------------  ---------------
    47      2.394530  1 Cl fyyz              48     -1.616309  1 Cl fyzz       
    44     -1.564214  1 Cl fxyz              57     -1.484820  1 Cl fyyz       
    43      1.015157  1 Cl fxyy              58      1.002273  1 Cl fyzz       
    54      0.969882  1 Cl fxyz              45     -0.862685  1 Cl fxzz       
    49     -0.676898  1 Cl fzzz              46      0.663730  1 Cl fyyy       

 Vector   61  Occ=0.000000D+00  E= 2.639163D+00
              MO Center=  5.2D-02,  1.4D-03, -2.3D-02, r^2= 1.2D+00
   Bfn.  Coefficient  Atom+Function         Bfn.  Coefficient  Atom+Function  
  ----- ------------  ---------------      ----- ------------  ---------------
    43      2.311557  1 Cl fxyy              53     -1.989669  1 Cl fxyy       
    42     -1.552042  1 Cl fxxz              52      1.335917  1 Cl fxxz       
    45     -1.164384  1 Cl fxzz              47     -1.029570  1 Cl fyyz       
    55      1.002242  1 Cl fxzz              57      0.886201  1 Cl fyyz       
    49      0.860537  1 Cl fzzz              59     -0.740706  1 Cl fzzz       

 Vector   62  Occ=0.000000D+00  E= 2.639165D+00
              MO Center=  5.2D-02,  1.4D-03, -2.3D-02, r^2= 1.2D+00
   Bfn.  Coefficient  Atom+Function         Bfn.  Coefficient  Atom+Function  
  ----- ------------  ---------------      ----- ------------  ---------------
    44      3.387603  1 Cl fxyz              54     -2.915874  1 Cl fxyz       
    41      1.882979  1 Cl fxxy              48     -1.882712  1 Cl fyzz       
    51     -1.620772  1 Cl fxxy              58      1.620541  1 Cl fyzz       
    83      0.528679  2 H  dyz               77      0.443815  2 H  dyz        
    32     -0.354258  1 Cl dyz               80      0.235541  2 H  dxy        

 Vector   63  Occ=0.000000D+00  E= 2.644284D+00
              MO Center=  2.1D-01,  5.5D-03, -9.4D-02, r^2= 1.9D+00
   Bfn.  Coefficient  Atom+Function         Bfn.  Coefficient  Atom+Function  
  ----- ------------  ---------------      ----- ------------  ---------------
    61     22.095940  2 H  s                  5    -14.456254  1 Cl s          
    30      8.941845  1 Cl dxz               62     -7.379846  2 H  s          
    50     -6.745944  1 Cl fxxx              52      6.438811  1 Cl fxxz       
    55     -5.186602  1 Cl fxzz              28     -5.049040  1 Cl dxx        
    31      4.980297  1 Cl dyy               10     -4.335960  1 Cl px         

 Vector   64  Occ=0.000000D+00  E= 2.745383D+00
              MO Center=  8.1D-02,  2.1D-03, -3.6D-02, r^2= 1.5D+00
   Bfn.  Coefficient  Atom+Function         Bfn.  Coefficient  Atom+Function  
  ----- ------------  ---------------      ----- ------------  ---------------
    41     -3.376034  1 Cl fxxy              11      3.326225  1 Cl py         
    12      3.041230  1 Cl pz                44      2.185913  1 Cl fxyz       
    42     -2.168960  1 Cl fxxz              56     -1.945948  1 Cl fyyy       
    29     -1.793729  1 Cl dxy               57     -1.801167  1 Cl fyyz       
    58     -1.777598  1 Cl fyzz               8      1.694412  1 Cl py         

 Vector   65  Occ=0.000000D+00  E= 2.745383D+00
              MO Center=  8.1D-02,  2.1D-03, -3.6D-02, r^2= 1.5D+00
   Bfn.  Coefficient  Atom+Function         Bfn.  Coefficient  Atom+Function  
  ----- ------------  ---------------      ----- ------------  ---------------
    11      3.293379  1 Cl py                41     -3.235611  1 Cl fxxy       
    12     -3.007511  1 Cl pz                44      2.356997  1 Cl fxyz       
    42      2.027794  1 Cl fxxz              56     -1.926731  1 Cl fyyy       
    29     -1.738930  1 Cl dxy               57      1.737689  1 Cl fyyz       
    58     -1.720265  1 Cl fyzz               8      1.677680  1 Cl py         

 Vector   66  Occ=0.000000D+00  E= 2.817064D+00
              MO Center=  7.0D-02,  1.8D-03, -3.1D-02, r^2= 2.5D+00
   Bfn.  Coefficient  Atom+Function         Bfn.  Coefficient  Atom+Function  
  ----- ------------  ---------------      ----- ------------  ---------------
    11     13.231551  1 Cl py                12    -11.977266  1 Cl pz         
     8      6.742998  1 Cl py                 9     -6.103796  1 Cl pz         
    10     -5.678407  1 Cl px                14     -4.731009  1 Cl py         
    15      4.282533  1 Cl pz                46     -4.228329  1 Cl fyyy       
    48     -4.068387  1 Cl fyzz              47      3.810643  1 Cl fyyz       

 Vector   67  Occ=0.000000D+00  E= 2.817064D+00
              MO Center=  7.0D-02,  1.8D-03, -3.1D-02, r^2= 2.5D+00
   Bfn.  Coefficient  Atom+Function         Bfn.  Coefficient  Atom+Function  
  ----- ------------  ---------------      ----- ------------  ---------------
    11     13.247753  1 Cl py                12     12.217399  1 Cl pz         
     8      6.751255  1 Cl py                 9      6.226171  1 Cl pz         
    10      5.099543  1 Cl px                14     -4.736802  1 Cl py         
    15     -4.368394  1 Cl pz                46     -4.233507  1 Cl fyyy       
    48     -4.104256  1 Cl fyzz              47     -3.921164  1 Cl fyyz       

 Vector   68  Occ=0.000000D+00  E= 3.092619D+00
              MO Center= -1.4D-01, -3.6D-03,  6.3D-02, r^2= 2.8D+00
   Bfn.  Coefficient  Atom+Function         Bfn.  Coefficient  Atom+Function  
  ----- ------------  ---------------      ----- ------------  ---------------
     5     37.746593  1 Cl s                 62    -34.702956  2 H  s          
    16     21.309401  1 Cl px                10     15.790916  1 Cl px         
    18     -9.493027  1 Cl pz                53     -8.100546  1 Cl fxyy       
     6      8.040963  1 Cl s                  7      8.060637  1 Cl px         
    70      7.309860  2 H  px                12     -7.034623  1 Cl pz         

 Vector   69  Occ=0.000000D+00  E= 3.483372D+00
              MO Center=  6.7D-01,  1.7D-02, -3.0D-01, r^2= 1.8D+00
   Bfn.  Coefficient  Atom+Function         Bfn.  Coefficient  Atom+Function  
  ----- ------------  ---------------      ----- ------------  ---------------
     5      8.141012  1 Cl s                 62      5.002103  2 H  s          
    10      2.610410  1 Cl px                82     -2.359612  2 H  dyy        
    84     -2.262246  2 H  dzz               60     -2.168570  2 H  s          
    43     -1.988384  1 Cl fxyy              79     -1.867662  2 H  dxx        
    42     -1.823833  1 Cl fxxz              31     -1.759594  1 Cl dyy        

 Vector   70  Occ=0.000000D+00  E= 3.676360D+00
              MO Center=  7.8D-01,  2.0D-02, -3.5D-01, r^2= 9.0D-01
   Bfn.  Coefficient  Atom+Function         Bfn.  Coefficient  Atom+Function  
  ----- ------------  ---------------      ----- ------------  ---------------
    43      1.375282  1 Cl fxyy              76     -1.003666  2 H  dyy        
    42     -0.923404  1 Cl fxxz              53     -0.888222  1 Cl fxyy       
    78      0.837811  2 H  dzz               75      0.747046  2 H  dxz        
    45     -0.692750  1 Cl fxzz              47     -0.612537  1 Cl fyyz       
    82      0.601501  2 H  dyy               52      0.596378  1 Cl fxxz       

 Vector   71  Occ=0.000000D+00  E= 3.676361D+00
              MO Center=  7.8D-01,  2.0D-02, -3.5D-01, r^2= 9.0D-01
   Bfn.  Coefficient  Atom+Function         Bfn.  Coefficient  Atom+Function  
  ----- ------------  ---------------      ----- ------------  ---------------
    44      2.015477  1 Cl fxyz              77     -1.834095  2 H  dyz        
    54     -1.301690  1 Cl fxyz              41      1.120306  1 Cl fxxy       
    48     -1.120126  1 Cl fyzz              83      1.099180  2 H  dyz        
    74     -0.817150  2 H  dxy               51     -0.723547  1 Cl fxxy       
    58      0.723431  1 Cl fyzz              38     -0.495418  1 Cl dyz        

 Vector   72  Occ=0.000000D+00  E= 4.033560D+00
              MO Center= -9.8D-02, -2.5D-03,  4.4D-02, r^2= 2.1D+00
   Bfn.  Coefficient  Atom+Function         Bfn.  Coefficient  Atom+Function  
  ----- ------------  ---------------      ----- ------------  ---------------
     5     35.992855  1 Cl s                 28    -14.730659  1 Cl dxx        
    33    -12.829063  1 Cl dzz                4    -12.434458  1 Cl s          
    31    -12.359831  1 Cl dyy               34     -5.775427  1 Cl dxx        
    61      5.694255  2 H  s                 10     -5.563237  1 Cl px         
    39     -5.576558  1 Cl dzz               37     -5.527486  1 Cl dyy        

 Vector   73  Occ=0.000000D+00  E= 4.291282D+00
              MO Center=  9.2D-01,  2.4D-02, -4.1D-01, r^2= 8.9D-01
   Bfn.  Coefficient  Atom+Function         Bfn.  Coefficient  Atom+Function  
  ----- ------------  ---------------      ----- ------------  ---------------
    68      3.066343  2 H  py                69      2.741041  2 H  pz         
    51     -2.602859  1 Cl fxxy              29     -2.393305  1 Cl dxy        
    30     -1.725796  1 Cl dxz               54      1.720444  1 Cl fxyz       
    52     -1.623088  1 Cl fxxz              80     -1.399475  2 H  dxy        
    55      1.253016  1 Cl fxzz              67      1.141671  2 H  px         

 Vector   74  Occ=0.000000D+00  E= 4.291282D+00
              MO Center=  9.2D-01,  2.4D-02, -4.1D-01, r^2= 8.9D-01
   Bfn.  Coefficient  Atom+Function         Bfn.  Coefficient  Atom+Function  
  ----- ------------  ---------------      ----- ------------  ---------------
    68      2.967579  2 H  py                69     -2.773189  2 H  pz         
    51     -2.436684  1 Cl fxxy              29     -2.267819  1 Cl dxy        
    54      1.813178  1 Cl fxyz              30      1.691894  1 Cl dxz        
    52      1.550014  1 Cl fxxz              80     -1.326098  2 H  dxy        
    67     -1.312280  2 H  px                55     -1.219116  1 Cl fxzz       

 Vector   75  Occ=0.000000D+00  E= 4.555058D+00
              MO Center=  6.7D-01,  1.7D-02, -3.0D-01, r^2= 9.2D-01
   Bfn.  Coefficient  Atom+Function         Bfn.  Coefficient  Atom+Function  
  ----- ------------  ---------------      ----- ------------  ---------------
    45      2.138629  1 Cl fxzz              75     -1.510587  2 H  dxz        
    44      1.497120  1 Cl fxyz              74     -1.473244  2 H  dxy        
    41     -1.311089  1 Cl fxxy              12     -1.241002  1 Cl pz         
    11     -0.967342  1 Cl py                78      0.830245  2 H  dzz        
    73     -0.792618  2 H  dxx               30     -0.759369  1 Cl dxz        

 Vector   76  Occ=0.000000D+00  E= 4.555058D+00
              MO Center=  6.7D-01,  1.7D-02, -3.0D-01, r^2= 9.2D-01
   Bfn.  Coefficient  Atom+Function         Bfn.  Coefficient  Atom+Function  
  ----- ------------  ---------------      ----- ------------  ---------------
    44      2.285870  1 Cl fxyz              74     -2.007926  2 H  dxy        
    41     -1.716076  1 Cl fxxy              45     -1.510207  1 Cl fxzz       
    11     -1.348003  1 Cl py                75      1.024959  2 H  dxz        
    29     -1.009380  1 Cl dxy               77      0.935705  2 H  dyz        
    23     -0.907686  1 Cl dxy               12      0.870896  1 Cl pz         

 Vector   77  Occ=0.000000D+00  E= 4.629531D+00
              MO Center=  7.5D-01,  1.9D-02, -3.3D-01, r^2= 1.3D+00
   Bfn.  Coefficient  Atom+Function         Bfn.  Coefficient  Atom+Function  
  ----- ------------  ---------------      ----- ------------  ---------------
     5      9.987853  1 Cl s                 10      7.968935  1 Cl px         
    62     -6.867222  2 H  s                 43     -4.574320  1 Cl fxyy       
     4     -4.049030  1 Cl s                 28     -3.902573  1 Cl dxx        
     7      3.812371  1 Cl px                45     -3.799719  1 Cl fxzz       
    12     -3.550044  1 Cl pz                33     -3.539950  1 Cl dzz        

 Vector   78  Occ=0.000000D+00  E= 5.096776D+00
              MO Center=  7.9D-01,  2.0D-02, -3.5D-01, r^2= 1.2D+00
   Bfn.  Coefficient  Atom+Function         Bfn.  Coefficient  Atom+Function  
  ----- ------------  ---------------      ----- ------------  ---------------
    16      6.681025  1 Cl px                62     -6.103969  2 H  s          
    61      5.601141  2 H  s                 34      3.946914  1 Cl dxx        
     5      3.479576  1 Cl s                 18     -2.976299  1 Cl pz         
    39      2.791215  1 Cl dzz               13     -2.703087  1 Cl px         
    10      2.598676  1 Cl px                37      2.506038  1 Cl dyy        

 Vector   79  Occ=0.000000D+00  E= 5.573402D+00
              MO Center=  6.8D-03,  1.8D-04, -3.1D-03, r^2= 2.2D+00
   Bfn.  Coefficient  Atom+Function         Bfn.  Coefficient  Atom+Function  
  ----- ------------  ---------------      ----- ------------  ---------------
    11     24.945060  1 Cl py                12    -22.430804  1 Cl pz         
     8     11.806483  1 Cl py                 9    -10.616487  1 Cl pz         
    10    -10.638698  1 Cl px                41    -10.134451  1 Cl fxxy       
    46     -9.919543  1 Cl fyyy              48     -9.967604  1 Cl fyzz       
    42      9.033787  1 Cl fxxz              47      8.924811  1 Cl fyyz       

 Vector   80  Occ=0.000000D+00  E= 5.573402D+00
              MO Center=  6.8D-03,  1.8D-04, -3.1D-03, r^2= 2.2D+00
   Bfn.  Coefficient  Atom+Function         Bfn.  Coefficient  Atom+Function  
  ----- ------------  ---------------      ----- ------------  ---------------
    11     24.811891  1 Cl py                12     23.031534  1 Cl pz         
     8     11.743454  1 Cl py                 9     10.900812  1 Cl pz         
    41    -10.089573  1 Cl fxxy              46     -9.866588  1 Cl fyyy       
    48     -9.905167  1 Cl fyzz              10      9.617559  1 Cl px         
    42     -9.285983  1 Cl fxxz              47     -9.153572  1 Cl fyyz       

 Vector   81  Occ=0.000000D+00  E= 5.978327D+00
              MO Center=  2.7D-01,  6.9D-03, -1.2D-01, r^2= 2.2D+00
   Bfn.  Coefficient  Atom+Function         Bfn.  Coefficient  Atom+Function  
  ----- ------------  ---------------      ----- ------------  ---------------
    10     28.214970  1 Cl px                62    -24.313045  2 H  s          
     5     19.485350  1 Cl s                 16     18.418039  1 Cl px         
     7     13.381450  1 Cl px                12    -12.569357  1 Cl pz         
    43    -11.622641  1 Cl fxyy              45    -11.469784  1 Cl fxzz       
    40    -11.365547  1 Cl fxxx              53     -8.894023  1 Cl fxyy       

 Vector   82  Occ=0.000000D+00  E= 7.155399D+00
              MO Center=  4.2D-01,  1.1D-02, -1.9D-01, r^2= 2.2D+00
   Bfn.  Coefficient  Atom+Function         Bfn.  Coefficient  Atom+Function  
  ----- ------------  ---------------      ----- ------------  ---------------
    10     30.952749  1 Cl px                62    -29.887140  2 H  s          
    16     15.898427  1 Cl px                 7     15.024586  1 Cl px         
    12    -13.788998  1 Cl pz                40    -13.746684  1 Cl fxxx       
    45    -12.692810  1 Cl fxzz              43    -11.147377  1 Cl fxyy       
    13    -10.403466  1 Cl px                53     -9.669875  1 Cl fxyy       

 Vector   83  Occ=0.000000D+00  E= 8.830861D+00
              MO Center= -4.9D-03, -1.3D-04,  2.2D-03, r^2= 1.0D+00
   Bfn.  Coefficient  Atom+Function         Bfn.  Coefficient  Atom+Function  
  ----- ------------  ---------------      ----- ------------  ---------------
     5     27.690179  1 Cl s                  3     14.307189  1 Cl s          
    31     -9.498682  1 Cl dyy               33     -9.475169  1 Cl dzz        
    28     -9.379880  1 Cl dxx               22     -7.453615  1 Cl dxx        
    27     -7.155855  1 Cl dzz                2      7.058059  1 Cl s          
    25     -7.082381  1 Cl dyy                4     -5.231466  1 Cl s          

 Vector   84  Occ=0.000000D+00  E= 2.427897D+01
              MO Center=  5.8D-01,  1.5D-02, -2.6D-01, r^2= 2.9D+00
   Bfn.  Coefficient  Atom+Function         Bfn.  Coefficient  Atom+Function  
  ----- ------------  ---------------      ----- ------------  ---------------
    61     51.579543  2 H  s                 10    -45.324613  1 Cl px         
     3    -43.557750  1 Cl s                  2    -31.629558  1 Cl s          
     7    -21.983682  1 Cl px                67    -21.642163  2 H  px         
    28    -21.214262  1 Cl dxx               12     20.191454  1 Cl pz         
    30     15.529744  1 Cl dxz               62     12.528113  2 H  s          


 center of mass
 --------------
 x =   0.04834262 y =   0.00125214 z =  -0.02153593

 moments of inertia (a.u.)
 ------------------
           0.580911744109          -0.075561509712           1.299603941201
          -0.075561509712           3.496230693188           0.033661550210
           1.299603941201           0.033661550210           2.919233245539

     Multipole analysis of the density
     ---------------------------------

     L   x y z        total         alpha         beta         nuclear
     -   - - -        -----         -----         ----         -------
     0   0 0 0     -0.000000     -9.000000     -9.000000     18.000000

     1   1 0 0      0.303246     -0.711228     -0.711228      1.725703
     1   0 1 0      0.007855     -0.018422     -0.018422      0.044698
     1   0 0 1     -0.135092      0.316842      0.316842     -0.768775

     2   2 0 0     -8.518651     -5.748351     -5.748351      2.978051
     2   1 1 0      0.043491     -0.016822     -0.016822      0.077136
     2   1 0 1     -0.748016      0.289331      0.289331     -1.326678
     2   0 2 0    -10.196627     -5.099312     -5.099312      0.001998
     2   0 1 1     -0.019375      0.007494      0.007494     -0.034363
     2   0 0 2     -9.864523     -5.227769     -5.227769      0.591016


            General Information
            -------------------
          SCF calculation type: DFT
          Wavefunction type:  closed shell.
          No. of atoms     :     2
          No. of electrons :    18
           Alpha electrons :     9
            Beta electrons :     9
          Charge           :     0
          Spin multiplicity:     1
          Use of symmetry is: off; symmetry adaption is: off
          Maximum number of iterations: 200
          AO basis - number of functions:    84
                     number of shells:    25
          Convergence on energy requested:  1.00D-06
          Convergence on density requested:  1.00D-05
          Convergence on gradient requested:  5.00D-04

              XC Information
              --------------
          PerdewBurkeErnzerhof Exchange Functional  1.000          
            Perdew 1991 LDA Correlation Functional  1.000 local    
           PerdewBurkeErnz. Correlation Functional  1.000 non-local

             Grid Information
             ----------------
          Grid used for XC integration:  medium    
          Radial quadrature: Mura-Knowles        
          Angular quadrature: Lebedev. 
          Tag              B.-S. Rad. Rad. Pts. Rad. Cut. Ang. Pts.
          ---              ---------- --------- --------- ---------
          Cl                  1.00       88          11.0       590
          H                   0.35       45          10.0       434
          Grid pruning is: on 
          Number of quadrature shells:   133
          Spatial weights used:  Erf1

          Convergence Information
          -----------------------
          Convergence aids based upon iterative change in 
          total energy or number of iterations. 
          Levelshifting, if invoked, occurs when the 
          HOMO/LUMO gap drops below (HL_TOL):  1.00D-02
          DIIS, if invoked, will attempt to extrapolate 
          using up to (NFOCK): 10 stored Fock matrices.

                    Damping(40%)  Levelshifting(0.0)       DIIS
                  --------------- ------------------- ---------------
          dE  on:    start            ASAP                start   
          dE off:  200 iters        200 iters           200 iters 


      Screening Tolerance Information
      -------------------------------
          Density screening/tol_rho:  1.00D-10
          AO Gaussian exp screening on grid/accAOfunc:  14
          CD Gaussian exp screening on grid/accCDfunc:  20
          XC Gaussian exp screening on grid/accXCfunc:  20
          Schwarz screening/accCoul:  1.00D-08



                            NWChem DFT Gradient Module
                            --------------------------



  charge          =   0.00
  wavefunction    = closed shell



                         DFT ENERGY GRADIENTS

    atom               coordinates                        gradient
                 x          y          z           x          y          z
   1 Cl      0.000000   0.000000   0.000000    0.371163   0.009614  -0.165348
   2 H       1.725703   0.044698  -0.768775   -0.371163  -0.009614   0.165348

                 ----------------------------------------
                 |  Time  |  1-e(secs)   |  2-e(secs)   |
                 ----------------------------------------
                 |  CPU   |       0.00   |       0.52   |
                 ----------------------------------------
                 |  WALL  |       0.01   |       0.52   |
                 ----------------------------------------

@ Step       Energy      Delta E   Gmax     Grms     Xrms     Xmax   Walltime
@ ---- ---------------- -------- -------- -------- -------- -------- --------
@    0    -460.55124389  0.0D+00  0.37116  0.23466  0.00000  0.00000      4.0
                                                                    

 Restricting large step in mode    1 eval= 1.2D+00 step=-4.7D-01 new=-3.0D-01

                                 NWChem DFT Module
                                 -----------------




 Summary of "ao basis" -> "ao basis" (cartesian)
 ------------------------------------------------------------------------------
       Tag                 Description            Shells   Functions and Types
 ---------------- ------------------------------  ------  ---------------------
 Cl                       aug-cc-pVTZ               16       59   6s5p3d2f
 H                        aug-cc-pVTZ                9       25   4s3p2d


  Caching 1-el integrals 

            General Information
            -------------------
          SCF calculation type: DFT
          Wavefunction type:  closed shell.
          No. of atoms     :     2
          No. of electrons :    18
           Alpha electrons :     9
            Beta electrons :     9
          Charge           :     0
          Spin multiplicity:     1
          Use of symmetry is: off; symmetry adaption is: off
          Maximum number of iterations: 200
          AO basis - number of functions:    84
                     number of shells:    25
          Convergence on energy requested:  1.00D-06
          Convergence on density requested:  1.00D-05
          Convergence on gradient requested:  5.00D-04

              XC Information
              --------------
          PerdewBurkeErnzerhof Exchange Functional  1.000          
            Perdew 1991 LDA Correlation Functional  1.000 local    
           PerdewBurkeErnz. Correlation Functional  1.000 non-local

             Grid Information
             ----------------
          Grid used for XC integration:  medium    
          Radial quadrature: Mura-Knowles        
          Angular quadrature: Lebedev. 
          Tag              B.-S. Rad. Rad. Pts. Rad. Cut. Ang. Pts.
          ---              ---------- --------- --------- ---------
          Cl                  1.00       88          11.0       590
          H                   0.35       45          11.0       434
          Grid pruning is: on 
          Number of quadrature shells:   133
          Spatial weights used:  Erf1

[...]
   Bfn.  Coefficient  Atom+Function         Bfn.  Coefficient  Atom+Function  
  ----- ------------  ---------------      ----- ------------  ---------------
    51     -1.605612  1 Cl fxxy              11      1.575710  1 Cl py         
    12     -1.523169  1 Cl pz                45      1.501159  1 Cl fxzz       
    44     -1.331853  1 Cl fxyz              54      1.190167  1 Cl fxyz       
    52      1.061053  1 Cl fxxz              80     -0.994418  2 H  dxy        
    74      0.939734  2 H  dxy               68      0.886662  2 H  py         

 Vector   76  Occ=0.000000D+00  E= 4.084117D+00
              MO Center=  7.4D-01,  1.9D-02, -3.3D-01, r^2= 1.1D+00
   Bfn.  Coefficient  Atom+Function         Bfn.  Coefficient  Atom+Function  
  ----- ------------  ---------------      ----- ------------  ---------------
    51     -1.773322  1 Cl fxxy              11      1.683612  1 Cl py         
    12      1.455958  1 Cl pz                45     -1.404091  1 Cl fxzz       
    44     -1.306758  1 Cl fxyz              54      1.167742  1 Cl fxyz       
    80     -1.085237  2 H  dxy               52     -1.073986  1 Cl fxxz       
    74      1.025558  2 H  dxy               68      0.947379  2 H  py         

 Vector   77  Occ=0.000000D+00  E= 4.425876D+00
              MO Center=  7.4D-01,  1.9D-02, -3.3D-01, r^2= 1.7D+00
   Bfn.  Coefficient  Atom+Function         Bfn.  Coefficient  Atom+Function  
  ----- ------------  ---------------      ----- ------------  ---------------
     5     10.917493  1 Cl s                 10      8.554505  1 Cl px         
    43     -4.333735  1 Cl fxyy               7      4.066118  1 Cl px         
    28     -3.907516  1 Cl dxx               12     -3.810907  1 Cl pz         
    33     -3.691332  1 Cl dzz               31     -3.637987  1 Cl dyy        
    45     -3.640471  1 Cl fxzz              40     -3.167715  1 Cl fxxx       

 Vector   78  Occ=0.000000D+00  E= 4.822356D+00
              MO Center=  8.6D-01,  2.2D-02, -3.8D-01, r^2= 1.6D+00
   Bfn.  Coefficient  Atom+Function         Bfn.  Coefficient  Atom+Function  
  ----- ------------  ---------------      ----- ------------  ---------------
     5      9.395971  1 Cl s                 61     -7.866345  2 H  s          
     3     -5.187506  1 Cl s                 67      4.969037  2 H  px         
     2     -4.118859  1 Cl s                 10      3.850782  1 Cl px         
     6      3.801534  1 Cl s                 30     -3.553135  1 Cl dxz        
    37     -2.688601  1 Cl dyy               39     -2.677400  1 Cl dzz        

 Vector   79  Occ=0.000000D+00  E= 5.444353D+00
              MO Center=  8.8D-01,  2.3D-02, -3.9D-01, r^2= 2.0D+00
   Bfn.  Coefficient  Atom+Function         Bfn.  Coefficient  Atom+Function  
  ----- ------------  ---------------      ----- ------------  ---------------
    61     12.870953  2 H  s                  5     -7.618985  1 Cl s          
    10      5.310870  1 Cl px                62      4.516023  2 H  s          
     6     -3.833819  1 Cl s                 50     -3.840644  1 Cl fxxx       
    67     -3.739103  2 H  px                43     -3.593930  1 Cl fxyy       
    45     -3.512668  1 Cl fxzz              40     -3.457253  1 Cl fxxx       

 Vector   80  Occ=0.000000D+00  E= 5.519996D+00
              MO Center= -1.4D-01, -3.5D-03,  6.1D-02, r^2= 2.2D+00
   Bfn.  Coefficient  Atom+Function         Bfn.  Coefficient  Atom+Function  
  ----- ------------  ---------------      ----- ------------  ---------------
    11     24.669434  1 Cl py                12     22.077414  1 Cl pz         
     8     11.663041  1 Cl py                 9     10.437604  1 Cl pz         
    41     -9.972435  1 Cl fxxy              46     -9.950530  1 Cl fyyy       
    48     -9.954339  1 Cl fyzz              10      9.196193  1 Cl px         
    42     -8.917116  1 Cl fxxz              47     -8.904530  1 Cl fyyz       

 Vector   81  Occ=0.000000D+00  E= 5.519996D+00
              MO Center= -1.4D-01, -3.5D-03,  6.1D-02, r^2= 2.2D+00
   Bfn.  Coefficient  Atom+Function         Bfn.  Coefficient  Atom+Function  
  ----- ------------  ---------------      ----- ------------  ---------------
    11     23.902336  1 Cl py                12    -22.310675  1 Cl pz         
     8     11.300378  1 Cl py                 9    -10.547883  1 Cl pz         
    10    -10.558185  1 Cl px                41     -9.661462  1 Cl fxxy       
    46     -9.641118  1 Cl fyyy              48     -9.645687  1 Cl fyzz       
    42      9.010349  1 Cl fxxz              47      8.999594  1 Cl fyyz       

 Vector   82  Occ=0.000000D+00  E= 6.253509D+00
              MO Center= -3.4D-02, -8.9D-04,  1.5D-02, r^2= 2.2D+00
   Bfn.  Coefficient  Atom+Function         Bfn.  Coefficient  Atom+Function  
  ----- ------------  ---------------      ----- ------------  ---------------
    10     33.240557  1 Cl px                 7     15.836536  1 Cl px         
    12    -14.808183  1 Cl pz                40    -14.087744  1 Cl fxxx       
    45    -13.571471  1 Cl fxzz              62    -13.290614  2 H  s          
    43    -12.814392  1 Cl fxyy              16     11.101518  1 Cl px         
    13     -9.246218  1 Cl px                53     -9.195637  1 Cl fxyy       

 Vector   83  Occ=0.000000D+00  E= 8.239402D+00
              MO Center=  6.3D-01,  1.6D-02, -2.8D-01, r^2= 4.0D+00
   Bfn.  Coefficient  Atom+Function         Bfn.  Coefficient  Atom+Function  
  ----- ------------  ---------------      ----- ------------  ---------------
    10     25.272344  1 Cl px                 3     24.413966  1 Cl s          
     2     16.811107  1 Cl s                 62    -13.313540  2 H  s          
     7     12.218619  1 Cl px                12    -11.258460  1 Cl pz         
    61    -10.099481  2 H  s                 16      8.813163  1 Cl px         
    43     -8.276851  1 Cl fxyy              45     -7.521999  1 Cl fxzz       

 Vector   84  Occ=0.000000D+00  E= 8.866062D+00
              MO Center= -6.1D-02, -1.6D-03,  2.7D-02, r^2= 1.6D+00
   Bfn.  Coefficient  Atom+Function         Bfn.  Coefficient  Atom+Function  
  ----- ------------  ---------------      ----- ------------  ---------------
     5     30.803748  1 Cl s                 28    -13.084279  1 Cl dxx        
    33    -11.460216  1 Cl dzz               31    -11.059467  1 Cl dyy        
    10    -10.726172  1 Cl px                 3      6.163151  1 Cl s          
    22     -6.088012  1 Cl dxx               25     -6.007158  1 Cl dyy        
    27     -6.023160  1 Cl dzz                4     -5.872125  1 Cl s          


 center of mass
 --------------
 x =  -0.18918217 y =  -0.00490008 z =   0.08427789

 moments of inertia (a.u.)
 ------------------
           0.969120515559          -0.126057374449           2.168096710544
          -0.126057374449           5.832674113160           0.056156721265
           2.168096710544           0.056156721265           4.870083720363

     Multipole analysis of the density
     ---------------------------------

     L   x y z        total         alpha         beta         nuclear
     -   - - -        -----         -----         ----         -------
     0   0 0 0     -0.000000     -9.000000     -9.000000     18.000000

     1   1 0 0      0.395278      1.347766      1.347766     -2.300254
     1   0 1 0      0.010238      0.034909      0.034909     -0.059580
     1   0 0 1     -0.176091     -0.600410     -0.600410      1.024730

     2   2 0 0     -8.378056     -6.682103     -6.682103      4.986150
     2   1 1 0      0.054627     -0.037261     -0.037261      0.129148
     2   1 0 1     -0.939548      0.640855      0.640855     -2.221257
     2   0 2 0    -10.485684     -5.244514     -5.244514      0.003345
     2   0 1 1     -0.024336      0.016599      0.016599     -0.057534
     2   0 0 2    -10.068544     -5.529041     -5.529041      0.989538

 Line search: 
     step= 1.00 grad=-1.6D-08 hess=-5.2D-08 energy=   -460.635709 mode=accept  
 new step= 1.00                   predicted energy=   -460.635709

          --------
          Step   4
          --------


                         Geometry "geometry" -> "geometry"
                         ---------------------------------

 Output coordinates in angstroms (scale by  1.889725989 to convert to a.u.)

  No.       Tag          Charge          X              Y              Z
 ---- ---------------- ---------- -------------- -------------- --------------
    1 Cl                  17.0000    -0.13315281    -0.00344884     0.05931763
    2 H                    1.0000     1.04635554     0.02710206    -0.46613613

      Atomic Mass 
      ----------- 

      Cl                34.968850
      H                  1.007825


 Effective nuclear repulsion energy (a.u.)       6.9649222096

            Nuclear Dipole moment (a.u.) 
            ----------------------------
        X                 Y               Z
 ---------------- ---------------- ----------------
    -2.3002541607    -0.0595797831     1.0247296702


                                 NWChem DFT Module
                                 -----------------




 Summary of "ao basis" -> "ao basis" (cartesian)
 ------------------------------------------------------------------------------
       Tag                 Description            Shells   Functions and Types
 ---------------- ------------------------------  ------  ---------------------
 Cl                       aug-cc-pVTZ               16       59   6s5p3d2f
 H                        aug-cc-pVTZ                9       25   4s3p2d



  The DFT is already converged 

         Total DFT energy =   -460.635708919033


            General Information
            -------------------
          SCF calculation type: DFT
          Wavefunction type:  closed shell.
          No. of atoms     :     2
          No. of electrons :    18
           Alpha electrons :     9
            Beta electrons :     9
          Charge           :     0
          Spin multiplicity:     1
          Use of symmetry is: off; symmetry adaption is: off
          Maximum number of iterations: 200
          AO basis - number of functions:    84
                     number of shells:    25
          Convergence on energy requested:  1.00D-06
          Convergence on density requested:  1.00D-05
          Convergence on gradient requested:  5.00D-04

              XC Information
              --------------
          PerdewBurkeErnzerhof Exchange Functional  1.000          
            Perdew 1991 LDA Correlation Functional  1.000 local    
           PerdewBurkeErnz. Correlation Functional  1.000 non-local

             Grid Information
             ----------------
          Grid used for XC integration:  medium    
          Radial quadrature: Mura-Knowles        
          Angular quadrature: Lebedev. 
          Tag              B.-S. Rad. Rad. Pts. Rad. Cut. Ang. Pts.
          ---              ---------- --------- --------- ---------
          Cl                  1.00       88          11.0       590
          H                   0.35       45          11.0       434
          Grid pruning is: on 
          Number of quadrature shells:   133
          Spatial weights used:  Erf1

          Convergence Information
          -----------------------
          Convergence aids based upon iterative change in 
          total energy or number of iterations. 
          Levelshifting, if invoked, occurs when the 
          HOMO/LUMO gap drops below (HL_TOL):  1.00D-02
          DIIS, if invoked, will attempt to extrapolate 
          using up to (NFOCK): 10 stored Fock matrices.

                    Damping(40%)  Levelshifting(0.0)       DIIS
                  --------------- ------------------- ---------------
          dE  on:    start            ASAP                start   
          dE off:  200 iters        200 iters           200 iters 


      Screening Tolerance Information
      -------------------------------
          Density screening/tol_rho:  1.00D-10
          AO Gaussian exp screening on grid/accAOfunc:  14
          CD Gaussian exp screening on grid/accCDfunc:  20
          XC Gaussian exp screening on grid/accXCfunc:  20
          Schwarz screening/accCoul:  1.00D-08



                            NWChem DFT Gradient Module
                            --------------------------



  charge          =   0.00
  wavefunction    = closed shell



                         DFT ENERGY GRADIENTS

    atom               coordinates                        gradient
                 x          y          z           x          y          z
   1 Cl     -0.251622  -0.006517   0.112094   -0.000044  -0.000001   0.000020
   2 H       1.977325   0.051215  -0.880870    0.000044   0.000001  -0.000020

                 ----------------------------------------
                 |  Time  |  1-e(secs)   |  2-e(secs)   |
                 ----------------------------------------
                 |  CPU   |       0.00   |       0.49   |
                 ----------------------------------------
                 |  WALL  |       0.00   |       0.49   |
                 ----------------------------------------

  Step       Energy      Delta E   Gmax     Grms     Xrms     Xmax   Walltime
  ---- ---------------- -------- -------- -------- -------- -------- --------
@    4    -460.63570892 -6.8D-08  0.00004  0.00003  0.00007  0.00010     13.3
                                     ok       ok       ok       ok  


      ----------------------
      Optimization converged
      ----------------------


  Step       Energy      Delta E   Gmax     Grms     Xrms     Xmax   Walltime
  ---- ---------------- -------- -------- -------- -------- -------- --------
@    4    -460.63570892 -6.8D-08  0.00004  0.00003  0.00007  0.00010     13.3
                                     ok       ok       ok       ok  



                         Geometry "geometry" -> "geometry"
                         ---------------------------------

 Output coordinates in angstroms (scale by  1.889725989 to convert to a.u.)

  No.       Tag          Charge          X              Y              Z
 ---- ---------------- ---------- -------------- -------------- --------------
    1 Cl                  17.0000    -0.13315281    -0.00344884     0.05931763
    2 H                    1.0000     1.04635554     0.02710206    -0.46613613

      Atomic Mass 
      ----------- 

      Cl                34.968850
      H                  1.007825


 Effective nuclear repulsion energy (a.u.)       6.9649222096

            Nuclear Dipole moment (a.u.) 
            ----------------------------
        X                 Y               Z
 ---------------- ---------------- ----------------
    -2.3002541607    -0.0595797831     1.0247296702

 ==============================================================================
                                internuclear distances
 ------------------------------------------------------------------------------
       center one      |      center two      | atomic units |  angstroms
 ------------------------------------------------------------------------------
    2 H                |   1 Cl               |     2.44080  |     1.29162
 ------------------------------------------------------------------------------
                         number of included internuclear distances:          1
 ==============================================================================




 Task  times  cpu:       11.4s     wall:       13.1s


                                NWChem Input Module
                                -------------------


 Summary of allocated global arrays
-----------------------------------
  No active global arrays


MA_summarize_allocated_blocks: starting scan ...
MA_summarize_allocated_blocks: scan completed: 0 heap blocks, 0 stack blocks
MA usage statistics:

	allocation statistics:
					      heap	     stack
					      ----	     -----
	current number of blocks	         0	         0
	maximum number of blocks	        24	        53
	current total bytes		         0	         0
	maximum total bytes		 268759984	  42244888
	maximum total K-bytes		    268760	     42245
	maximum total M-bytes		       269	        43


                                     CITATION
                                     --------
                Please cite the following reference when publishing
                           results obtained with NWChem:

          E. Apra, E. J. Bylaska, W. A. de Jong, N. Govind, K. Kowalski,
       T. P. Straatsma, M. Valiev, H. J. J. van Dam, Y. Alexeev, J. Anchell,
       V. Anisimov, F. W. Aquino, R. Atta-Fynn, J. Autschbach, N. P. Bauman,
     J. C. Becca, D. E. Bernholdt, K. Bhaskaran-Nair, S. Bogatko, P. Borowski,
         J. Boschen, J. Brabec, A. Bruner, E. Cauet, Y. Chen, G. N. Chuev,
      C. J. Cramer, J. Daily, M. J. O. Deegan, T. H. Dunning Jr., M. Dupuis,
   K. G. Dyall, G. I. Fann, S. A. Fischer, A. Fonari, H. Fruchtl, L. Gagliardi,
      J. Garza, N. Gawande, S. Ghosh, K. Glaesemann, A. W. Gotz, J. Hammond,
       V. Helms, E. D. Hermes, K. Hirao, S. Hirata, M. Jacquelin, L. Jensen,
   B. G. Johnson, H. Jonsson, R. A. Kendall, M. Klemm, R. Kobayashi, V. Konkov,
      S. Krishnamoorthy, M. Krishnan, Z. Lin, R. D. Lins, R. J. Littlefield,
      A. J. Logsdail, K. Lopata, W. Ma, A. V. Marenich, J. Martin del Campo,
   D. Mejia-Rodriguez, J. E. Moore, J. M. Mullin, T. Nakajima, D. R. Nascimento,
    J. A. Nichols, P. J. Nichols, J. Nieplocha, A. Otero-de-la-Roza, B. Palmer,
    A. Panyala, T. Pirojsirikul, B. Peng, R. Peverati, J. Pittner, L. Pollack,
   R. M. Richard, P. Sadayappan, G. C. Schatz, W. A. Shelton, D. W. Silverstein,
   D. M. A. Smith, T. A. Soares, D. Song, M. Swart, H. L. Taylor, G. S. Thomas,
            V. Tipparaju, D. G. Truhlar, K. Tsemekhman, T. Van Voorhis,
      A. Vazquez-Mayagoitia, P. Verma, O. Villa, A. Vishnu, K. D. Vogiatzis,
        D. Wang, J. H. Weare, M. J. Williamson, T. L. Windus, K. Wolinski,
        A. T. Wong, Q. Wu, C. Yang, Q. Yu, M. Zacharias, Z. Zhang, Y. Zhao,
                                and R. J. Harrison
                        "NWChem: Past, present, and future
                         J. Chem. Phys. 152, 184102 (2020)
                               doi:10.1063/5.0004997

                                      AUTHORS
                                      -------
  E. Apra, E. J. Bylaska, N. Govind, K. Kowalski, M. Valiev, D. Mejia-Rodriguez,
       A. Kunitsa, N. P. Bauman, A. Panyala, W. A. de Jong, T. P. Straatsma,
   H. J. J. van Dam, D. Wang, T. L. Windus, J. Hammond, J. Autschbach, A. Woods,
    K. Bhaskaran-Nair, J. Brabec, K. Lopata, S. A. Fischer, S. Krishnamoorthy,
     M. Jacquelin, W. Ma, M. Klemm, O. Villa, Y. Chen, V. Anisimov, F. Aquino,
     S. Hirata, M. T. Hackler, E. Hermes, L. Jensen, J. E. Moore, J. C. Becca,
      V. Konjkov, T. Risthaus, M. Malagoli, A. Marenich, A. Otero-de-la-Roza,
        J. Mullin, P. Nichols, R. Peverati, J. Pittner, Y. Zhao, P.-D. Fan,
        A. Fonari, M. J. Williamson, R. J. Harrison, J. R. Rehr, M. Dupuis,
     D. Silverstein, D. M. A. Smith, J. Nieplocha, V. Tipparaju, M. Krishnan,
     B. E. Van Kuiken, A. Vazquez-Mayagoitia, M. Swart, Q. Wu, T. Van Voorhis,
     A. A. Auer, M. Nooijen, L. D. Crosby, E. Brown, G. Cisneros, G. I. Fann,
   H. Fruchtl, J. Garza, K. Hirao, R. A. Kendall, J. A. Nichols, K. Tsemekhman,
    K. Wolinski, J. Anchell, D. E. Bernholdt, P. Borowski, T. Clark, D. Clerc,
   H. Dachsel, M. J. O. Deegan, K. Dyall, D. Elwood, E. Glendening, M. Gutowski,
   A. C. Hess, J. Jaffe, B. G. Johnson, J. Ju, R. Kobayashi, R. Kutteh, Z. Lin,
   R. Littlefield, X. Long, B. Meng, T. Nakajima, S. Niu, L. Pollack, M. Rosing,
   K. Glaesemann, G. Sandrone, M. Stave, H. Taylor, G. Thomas, J. H. van Lenthe,
                               A. T. Wong, Z. Zhang.

 Total times  cpu:       11.5s     wall:       13.3s
