 argument  1 = 0e/mol.nwi
                                         
                                         


             Northwest Computational Chemistry Package (NWChem) 7.2.2
             --------------------------------------------------------


                    Environmental Molecular Sciences Laboratory
                       Pacific Northwest National Laboratory
                                Richland, WA 99352

                              Copyright (c) 1994-2022
                       Pacific Northwest National Laboratory
                            Battelle Memorial Institute

             NWChem is an open-source computational chemistry package
                        distributed under the terms of the
                      Educational Community License (ECL) 2.0
             A copy of the license is included with this distribution
                              in the LICENSE.TXT file

                                  ACKNOWLEDGMENT
                                  --------------

            This software and its documentation were developed at the
            EMSL at Pacific Northwest National Laboratory, a multiprogram
            national laboratory, operated for the U.S. Department of Energy
            by Battelle under Contract Number DE-AC05-76RL01830. Support
            for this work was provided by the Department of Energy Office
            of Biological and Environmental Research, Office of Basic
            Energy Sciences, and the Office of Advanced Scientific Computing.


           Job information
           ---------------

    hostname        = r011.ib.bridges2.psc.edu
    program         = nwchem
    date            = Tue Oct  1 15:14:43 2024

    compiled        = Mon_Mar_18_17:03:37_2024
    source          = /ocean/projects/pscstaff/mmadrid/nwchem-7.2.2
    nwchem branch   = 7.2.2
    nwchem revision = 74936fb9
    ga revision     = 5.8.0
    use scalapack   = F
    input           = 0e/mol.nwi
    prefix          = dft.
    data base       = .//dft.db
    status          = startup
    nproc           =       15
    time left       =     -1s



           Memory information
           ------------------

    heap     =   67108864 doubles =    512.0 Mbytes
    stack    =   67108861 doubles =    512.0 Mbytes
    global   =  134217728 doubles =   1024.0 Mbytes (distinct from heap & stack)
    total    =  268435453 doubles =   2048.0 Mbytes
    verify   = yes
    hardfail = no 


           Directory information
           ---------------------

  0 permanent = ./
  0 scratch   = /jet/home/hmt47/nwchem_scratch/




                                NWChem Input Module
                                -------------------


  library name resolved from: environment
  library file name is: </opt/packages/nwchem/nwchem7.2.2/share/nwchem/libraries/>
  


 Summary of "ao basis" -> "" (cartesian)
 ------------------------------------------------------------------------------
       Tag                 Description            Shells   Functions and Types
 ---------------- ------------------------------  ------  ---------------------
 *                        aug-cc-pVTZ                 on all atoms 


  pbe96 is a nonlocal functional; adding pw91lda local functional. 

 Scaling coordinates for geometry "geometry" by  1.889725989
 (inverse scale =  0.529177249)



                             Geometry "geometry" -> ""
                             -------------------------

 Output coordinates in angstroms (scale by  1.889725989 to convert to a.u.)

  No.       Tag          Charge          X              Y              Z
 ---- ---------------- ---------- -------------- -------------- --------------
    1 C                    6.0000    -0.00282619    -0.00847686    -0.07545256
    2 C                    6.0000    -0.01728729     0.05111401     1.50859218
    3 O                    8.0000     0.58484252     1.00435820    -0.54130758
    4 O                    8.0000    -0.54386086    -0.99059763    -0.61559372
    5 H                    1.0000     0.49611359     0.93868263     1.88409838
    6 Cl                  17.0000    -1.71237918     0.15373246     2.18072604
    7 Cl                  17.0000     0.84895341    -1.36607780     2.26951027

      Atomic Mass 
      ----------- 

      C                 12.000000
      O                 15.994910
      H                  1.007825
      Cl                34.968850


 Effective nuclear repulsion energy (a.u.)     335.8137805870

            Nuclear Dipole moment (a.u.) 
            ----------------------------
        X                 Y               Z
 ---------------- ---------------- ----------------
   -26.4088301725   -36.4816906367   145.2854277377


            XYZ format geometry
            -------------------
     7
 geometry
 C                    -0.00282619    -0.00847686    -0.07545256
 C                    -0.01728729     0.05111401     1.50859218
 O                     0.58484252     1.00435820    -0.54130758
 O                    -0.54386086    -0.99059763    -0.61559372
 H                     0.49611359     0.93868263     1.88409838
 Cl                   -1.71237918     0.15373246     2.18072604
 Cl                    0.84895341    -1.36607780     2.26951027

 ==============================================================================
                                internuclear distances
 ------------------------------------------------------------------------------
       center one      |      center two      | atomic units |  angstroms
 ------------------------------------------------------------------------------
    2 C                |   1 C                |     2.99565  |     1.58523
    3 O                |   1 C                |     2.38151  |     1.26024
    4 O                |   1 C                |     2.35196  |     1.24460
    5 H                |   2 C                |     2.06349  |     1.09195
    6 Cl               |   2 C                |     3.45134  |     1.82637
    7 Cl               |   2 C                |     3.45246  |     1.82697
 ------------------------------------------------------------------------------
                         number of included internuclear distances:          6
 ==============================================================================



 ==============================================================================
                                 internuclear angles
 ------------------------------------------------------------------------------
        center 1       |       center 2       |       center 3       |  degrees
 ------------------------------------------------------------------------------
    2 C                |   1 C                |   3 O                |   110.09
    2 C                |   1 C                |   4 O                |   117.35
    3 O                |   1 C                |   4 O                |   132.57
    1 C                |   2 C                |   5 H                |   111.71
    1 C                |   2 C                |   6 Cl               |   112.23
    1 C                |   2 C                |   7 Cl               |   112.50
    5 H                |   2 C                |   6 Cl               |   105.32
    5 H                |   2 C                |   7 Cl               |   105.33
    6 Cl               |   2 C                |   7 Cl               |   109.29
 ------------------------------------------------------------------------------
                            number of included internuclear angles:          9
 ==============================================================================




                                 NWChem DFT Module
                                 -----------------


                      Basis "ao basis" -> "ao basis" (cartesian)
                      -----
  C (Carbon)
  ----------
            Exponent  Coefficients 
       -------------- ---------------------------------------------------------
  1 S  8.23600000E+03  0.000531
  1 S  1.23500000E+03  0.004108
  1 S  2.80800000E+02  0.021087
  1 S  7.92700000E+01  0.081853
  1 S  2.55900000E+01  0.234817
  1 S  8.99700000E+00  0.434401
  1 S  3.31900000E+00  0.346129
  1 S  3.64300000E-01 -0.008983

  2 S  8.23600000E+03 -0.000113
  2 S  1.23500000E+03 -0.000878
  2 S  2.80800000E+02 -0.004540
  2 S  7.92700000E+01 -0.018133
  2 S  2.55900000E+01 -0.055760
  2 S  8.99700000E+00 -0.126895
  2 S  3.31900000E+00 -0.170352
  2 S  3.64300000E-01  0.598684

  3 S  9.05900000E-01  1.000000

  4 S  1.28500000E-01  1.000000

  5 S  4.40200000E-02  1.000000

  6 P  1.87100000E+01  0.014031
  6 P  4.13300000E+00  0.086866
  6 P  1.20000000E+00  0.290216

  7 P  3.82700000E-01  1.000000

  8 P  1.20900000E-01  1.000000

  9 P  3.56900000E-02  1.000000

 10 D  1.09700000E+00  1.000000

 11 D  3.18000000E-01  1.000000

 12 D  1.00000000E-01  1.000000

 13 F  7.61000000E-01  1.000000

 14 F  2.68000000E-01  1.000000

  O (Oxygen)
  ----------
            Exponent  Coefficients 
       -------------- ---------------------------------------------------------
  1 S  1.53300000E+04  0.000508
  1 S  2.29900000E+03  0.003929
  1 S  5.22400000E+02  0.020243
  1 S  1.47300000E+02  0.079181
  1 S  4.75500000E+01  0.230687
  1 S  1.67600000E+01  0.433118
  1 S  6.20700000E+00  0.350260
  1 S  6.88200000E-01 -0.008154

  2 S  1.53300000E+04 -0.000115
  2 S  2.29900000E+03 -0.000895
  2 S  5.22400000E+02 -0.004636
  2 S  1.47300000E+02 -0.018724
  2 S  4.75500000E+01 -0.058463
  2 S  1.67600000E+01 -0.136463
  2 S  6.20700000E+00 -0.175740
  2 S  6.88200000E-01  0.603418

  3 S  1.75200000E+00  1.000000

  4 S  2.38400000E-01  1.000000

  5 S  7.37600000E-02  1.000000

  6 P  3.44600000E+01  0.015928
  6 P  7.74900000E+00  0.099740
  6 P  2.28000000E+00  0.310492

  7 P  7.15600000E-01  1.000000

  8 P  2.14000000E-01  1.000000

  9 P  5.97400000E-02  1.000000

 10 D  2.31400000E+00  1.000000

 11 D  6.45000000E-01  1.000000

 12 D  2.14000000E-01  1.000000

 13 F  1.42800000E+00  1.000000

 14 F  5.00000000E-01  1.000000

  H (Hydrogen)
  ------------
            Exponent  Coefficients 
       -------------- ---------------------------------------------------------
  1 S  3.38700000E+01  0.006068
  1 S  5.09500000E+00  0.045308
  1 S  1.15900000E+00  0.202822

  2 S  3.25800000E-01  1.000000

  3 S  1.02700000E-01  1.000000

  4 S  2.52600000E-02  1.000000

  5 P  1.40700000E+00  1.000000

  6 P  3.88000000E-01  1.000000

  7 P  1.02000000E-01  1.000000

  8 D  1.05700000E+00  1.000000

  9 D  2.47000000E-01  1.000000

  Cl (Chlorine)
  -------------
            Exponent  Coefficients 
       -------------- ---------------------------------------------------------
  1 S  4.56100000E+05  0.000049
  1 S  6.83300000E+04  0.000383
  1 S  1.55500000E+04  0.002009
  1 S  4.40500000E+03  0.008386
  1 S  1.43900000E+03  0.029470
  1 S  5.20400000E+02  0.087833
  1 S  2.03100000E+02  0.211473
  1 S  8.39600000E+01  0.365364
  1 S  3.62000000E+01  0.340884
  1 S  1.58300000E+01  0.102133
  1 S  6.33400000E+00  0.003117
  1 S  2.69400000E+00  0.001058
  1 S  4.31300000E-01  0.000156

  2 S  4.56100000E+05 -0.000014
  2 S  6.83300000E+04 -0.000107
  2 S  1.55500000E+04 -0.000565
  2 S  4.40500000E+03 -0.002361
  2 S  1.43900000E+03 -0.008459
  2 S  5.20400000E+02 -0.025964
  2 S  2.03100000E+02 -0.068636
  2 S  8.39600000E+01 -0.141874
  2 S  3.62000000E+01 -0.199319
  2 S  1.58300000E+01 -0.019566
  2 S  6.33400000E+00  0.499741
  2 S  2.69400000E+00  0.563736
  2 S  4.31300000E-01 -0.008351

  3 S  4.56100000E+05  0.000004
  3 S  6.83300000E+04  0.000032
  3 S  1.55500000E+04  0.000171
  3 S  4.40500000E+03  0.000714
  3 S  1.43900000E+03  0.002567
  3 S  5.20400000E+02  0.007886
  3 S  2.03100000E+02  0.021087
  3 S  8.39600000E+01  0.044226
  3 S  3.62000000E+01  0.065167
  3 S  1.58300000E+01  0.006030
  3 S  6.33400000E+00 -0.206495
  3 S  2.69400000E+00 -0.405871
  3 S  4.31300000E-01  0.725661

  4 S  9.76800000E-01  1.000000

  5 S  1.62500000E-01  1.000000

  6 S  5.91000000E-02  1.000000

  7 P  6.63300000E+02  0.002404
  7 P  1.56800000E+02  0.019215
  7 P  4.99800000E+01  0.088510
  7 P  1.84200000E+01  0.256020
  7 P  7.24000000E+00  0.436927
  7 P  2.92200000E+00  0.350334
  7 P  3.81800000E-01 -0.004584

  8 P  6.63300000E+02 -0.000652
  8 P  1.56800000E+02 -0.005194
  8 P  4.99800000E+01 -0.024694
  8 P  1.84200000E+01 -0.072817
  8 P  7.24000000E+00 -0.134030
  8 P  2.92200000E+00 -0.094774
  8 P  3.81800000E-01  0.564667

  9 P  1.02200000E+00  1.000000

 10 P  1.30100000E-01  1.000000

 11 P  4.19000000E-02  1.000000

 12 D  1.04600000E+00  1.000000

 13 D  3.44000000E-01  1.000000

 14 D  1.35000000E-01  1.000000

 15 F  7.06000000E-01  1.000000

 16 F  3.12000000E-01  1.000000



 Summary of "ao basis" -> "ao basis" (cartesian)
 ------------------------------------------------------------------------------
       Tag                 Description            Shells   Functions and Types
 ---------------- ------------------------------  ------  ---------------------
 C                        aug-cc-pVTZ               14       55   5s4p3d2f
 O                        aug-cc-pVTZ               14       55   5s4p3d2f
 H                        aug-cc-pVTZ                9       25   4s3p2d
 Cl                       aug-cc-pVTZ               16       59   6s5p3d2f




 Summary of "ao basis" -> "ao basis" (cartesian)
 ------------------------------------------------------------------------------
       Tag                 Description            Shells   Functions and Types
 ---------------- ------------------------------  ------  ---------------------
 C                        aug-cc-pVTZ               14       55   5s4p3d2f
 O                        aug-cc-pVTZ               14       55   5s4p3d2f
 H                        aug-cc-pVTZ                9       25   4s3p2d
 Cl                       aug-cc-pVTZ               16       59   6s5p3d2f


  Caching 1-el integrals 

            General Information
            -------------------
          SCF calculation type: DFT
          Wavefunction type:  spin polarized.
          No. of atoms     :     7
          No. of electrons :    63
           Alpha electrons :    32
            Beta electrons :    31
          Charge           :     0
          Spin multiplicity:     2
          Use of symmetry is: off; symmetry adaption is: off
          Maximum number of iterations: 200
          AO basis - number of functions:   363
                     number of shells:    97
          Convergence on energy requested:  1.00D-06
          Convergence on density requested:  1.00D-05
          Convergence on gradient requested:  5.00D-04

              XC Information
              --------------
          PerdewBurkeErnzerhof Exchange Functional  1.000          
            Perdew 1991 LDA Correlation Functional  1.000 local    
           PerdewBurkeErnz. Correlation Functional  1.000 non-local

             Grid Information
             ----------------
          Grid used for XC integration:  medium    
          Radial quadrature: Mura-Knowles        
          Angular quadrature: Lebedev. 
          Tag              B.-S. Rad. Rad. Pts. Rad. Cut. Ang. Pts.
          ---              ---------- --------- --------- ---------
          C                   0.70       49          13.0       434
          O                   0.60       49          14.0       434
          H                   0.35       45          13.0       434
          Cl                  1.00       88          13.0       590
          Grid pruning is: on 
          Number of quadrature shells:   417
          Spatial weights used:  Erf1

          Convergence Information
          -----------------------
          Convergence aids based upon iterative change in 
          total energy or number of iterations. 
          Levelshifting, if invoked, occurs when the 
          HOMO/LUMO gap drops below (HL_TOL):  1.00D-02
          DIIS, if invoked, will attempt to extrapolate 
          using up to (NFOCK): 10 stored Fock matrices.

                    Damping(40%)  Levelshifting(0.0)       DIIS
                  --------------- ------------------- ---------------
          dE  on:    start            0.00D+00            start   
          dE off:  200 iters          0.00D+00          200 iters 


      Screening Tolerance Information
      -------------------------------
          Density screening/tol_rho:  1.00D-10
          AO Gaussian exp screening on grid/accAOfunc:  14
          CD Gaussian exp screening on grid/accCDfunc:  20
          XC Gaussian exp screening on grid/accXCfunc:  20
          Schwarz screening/accCoul:  1.00D-08


 Forcing the number of linearly dependent vectors to be  0

      Superposition of Atomic Density Guess
      -------------------------------------

 Sum of atomic energies:       -1144.37689069
   Time after variat. SCF:      0.6
   Time prior to 1st pass:      0.6

 Grid_pts file          = /jet/home/hmt47/nwchem_scratch//dft.gridpts.00
 Record size in doubles =  12289        No. of grid_pts per rec  =   3070
 Max. records in memory =      7        Max. recs in file   =  67550051


           Memory utilization after 1st SCF pass: 
           Heap Space remaining (MW):       33.46            33458752
          Stack Space remaining (MW):       67.11            67105788

   convergence    iter        energy       DeltaE   RMS-Dens  Diis-err    time
 ---------------- ----- ----------------- --------- --------- ---------  ------
 d=40,ls=0.0,diis     1  -1147.8967090890 -1.48D+03  4.33D-03  1.11D+01     2.3
                                                     4.40D-03  1.04D+01
 d=40,ls=0.0,diis     2  -1147.3240708405  5.73D-01  1.94D-02  1.85D+00    10.2
                                                     8.17D-03  1.74D+00
 d=40,ls=0.0,diis     3  -1144.1379556519  3.19D+00  1.16D-02  2.88D+00    18.2
                                                     4.89D-03  2.71D+00
 d=40,ls=0.0,diis     4  -1146.4985015859 -2.36D+00  4.58D-03  4.77D-01    26.1
                                                     1.95D-03  4.57D-01
 d=40,ls=0.0,diis     5  -1146.9290785405 -4.31D-01  1.86D-03  1.15D-01    34.2
                                                     1.42D-03  1.01D-01
 d=40,ls=0.0,diis     6  -1147.0236709473 -9.46D-02  7.97D-04  7.63D-02    42.3
                                                     9.85D-04  6.00D-02
 d=40,ls=0.0,diis     7  -1147.0839236413 -6.03D-02  3.51D-04  1.06D-02    50.3
                                                     3.47D-04  7.40D-03
  Resetting Diis
 d=40,ls=0.0,diis     8  -1147.1009015301 -1.70D-02  1.70D-04  3.17D-03    60.5
                                                     1.70D-04  2.18D-03
 d=40,ls=0.0,diis     9  -1147.1074889297 -6.59D-03  1.11D-04  4.85D-04    68.6
                                                     1.75D-04  2.91D-04
 d=40,ls=0.0,diis    10  -1147.1090995775 -1.61D-03  5.14D-05  1.32D-03    76.5
                                                     5.74D-04  1.42D-03
 d=40,ls=0.0,diis    11  -1147.1056526881  3.45D-03  3.25D-05  1.10D-02    84.6
                                                     3.45D-04  1.03D-02
 d=40,ls=0.0,diis    12  -1147.1107288492 -5.08D-03  1.64D-05  8.24D-04    92.6
                                                     6.06D-05  7.85D-04
 d=40,ls=0.0,diis    13  -1147.1112023690 -4.74D-04  9.32D-06  3.22D-04   100.6
                                                     3.05D-05  3.12D-04
 d=40,ls=0.0,diis    14  -1147.1113784365 -1.76D-04  7.59D-06  1.60D-04   108.6
                                                     2.32D-05  1.54D-04
 d=40,ls=0.0,diis    15  -1147.1114667970 -8.84D-05  4.41D-06  5.88D-05   116.6
                                                     2.30D-05  5.65D-05
 d=40,ls=0.0,diis    16  -1147.1115077890 -4.10D-05  1.48D-06  5.89D-06   124.6
                                                     5.24D-06  5.60D-06
 d=40,ls=0.0,diis    17  -1147.1115170819 -9.29D-06  6.86D-07  1.31D-06   132.6
                                                     2.26D-06  1.23D-06
 d=40,ls=0.0,diis    18  -1147.1115204374 -3.36D-06  3.65D-07  3.24D-07   140.6
                                                     1.24D-06  3.02D-07
 d=40,ls=0.0,diis    19  -1147.1115217240 -1.29D-06  1.98D-07  6.58D-08   148.6
                                                     6.16D-07  6.05D-08
 d=40,ls=0.0,diis    20  -1147.1115222194 -4.95D-07  9.81D-08  1.02D-08   156.7
                                                     2.33D-07  9.06D-09


         Total DFT energy =    -1147.111522219401
      One electron energy =    -2247.865117260983
           Coulomb energy =      848.996855981063
    Exchange-Corr. energy =      -84.057041526444
 Nuclear repulsion energy =      335.813780586963

 Numeric. integr. density =       63.000003785565

     Total iterative time =    156.1s



                    DFT Final Alpha Molecular Orbital Analysis
                    ------------------------------------------

 Vector    1  Occ=1.000000D+00  E=-1.007555D+02
              MO Center= -1.7D+00,  1.5D-01,  2.2D+00, r^2= 3.5D-03
   Bfn.  Coefficient  Atom+Function         Bfn.  Coefficient  Atom+Function  
  ----- ------------  ---------------      ----- ------------  ---------------
   246      1.002009  6 Cl s                250     -0.042506  6 Cl s          

 Vector    2  Occ=1.000000D+00  E=-1.007551D+02
              MO Center=  8.5D-01, -1.4D+00,  2.3D+00, r^2= 3.5D-03
   Bfn.  Coefficient  Atom+Function         Bfn.  Coefficient  Atom+Function  
  ----- ------------  ---------------      ----- ------------  ---------------
   305      1.002009  7 Cl s                309     -0.042561  7 Cl s          

 Vector    3  Occ=1.000000D+00  E=-1.881727D+01
              MO Center=  5.8D-01,  1.0D+00, -5.4D-01, r^2= 1.5D-02
   Bfn.  Coefficient  Atom+Function         Bfn.  Coefficient  Atom+Function  
  ----- ------------  ---------------      ----- ------------  ---------------
   111      0.982201  3 O  s                 59      0.092410  2 C  s          
   223     -0.069650  5 H  s                113      0.067832  3 O  s          
     4     -0.062237  1 C  s                169      0.047104  4 O  s          
   114     -0.041615  3 O  s                 54      0.040128  1 C  fyzz       
    13     -0.038544  1 C  py                50      0.032920  1 C  fxyz       

 Vector    4  Occ=1.000000D+00  E=-1.880690D+01
              MO Center= -5.4D-01, -9.9D-01, -6.2D-01, r^2= 1.5D-02
   Bfn.  Coefficient  Atom+Function         Bfn.  Coefficient  Atom+Function  
  ----- ------------  ---------------      ----- ------------  ---------------
   166      0.983287  4 O  s                 59     -0.105349  2 C  s          
   168      0.068774  4 O  s                 14      0.053754  1 C  pz         
    50      0.040662  1 C  fxyz             114      0.038652  3 O  s          
   169     -0.036546  4 O  s                 53      0.035949  1 C  fyyz       
    86      0.033366  2 C  dxy               31     -0.031900  1 C  dxy        

 Vector    5  Occ=1.000000D+00  E=-1.007903D+01
              MO Center= -1.7D-02,  5.1D-02,  1.5D+00, r^2= 2.8D-02
   Bfn.  Coefficient  Atom+Function         Bfn.  Coefficient  Atom+Function  
  ----- ------------  ---------------      ----- ------------  ---------------
    56      1.012663  2 C  s                 59     -0.123580  2 C  s          
    57      0.085101  2 C  s                 58      0.065493  2 C  s          
    68     -0.048051  2 C  py               222     -0.041261  5 H  s          
   223      0.038656  5 H  s                  4      0.036730  1 C  s          
    65      0.033959  2 C  py                60     -0.031099  2 C  s          

 Vector    6  Occ=1.000000D+00  E=-1.005838D+01
              MO Center= -2.8D-03, -8.5D-03, -7.5D-02, r^2= 2.8D-02
   Bfn.  Coefficient  Atom+Function         Bfn.  Coefficient  Atom+Function  
  ----- ------------  ---------------      ----- ------------  ---------------
     1      1.012437  1 C  s                  2      0.085010  1 C  s          
     4     -0.076072  1 C  s                 59      0.075325  2 C  s          
     3      0.068080  1 C  s                169     -0.067741  4 O  s          
   114     -0.043950  3 O  s                 69     -0.036036  2 C  pz         
    27      0.035729  1 C  dyy               25      0.034239  1 C  dxy        

 Vector    7  Occ=1.000000D+00  E=-9.237648D+00
              MO Center= -1.7D+00,  1.5D-01,  2.2D+00, r^2= 6.6D-02
   Bfn.  Coefficient  Atom+Function         Bfn.  Coefficient  Atom+Function  
  ----- ------------  ---------------      ----- ------------  ---------------
   247      0.900186  6 Cl s                249      0.112305  6 Cl s          
    59      0.034285  2 C  s                248     -0.029886  6 Cl s          

 Vector    8  Occ=1.000000D+00  E=-9.237245D+00
              MO Center=  8.5D-01, -1.4D+00,  2.3D+00, r^2= 6.6D-02
   Bfn.  Coefficient  Atom+Function         Bfn.  Coefficient  Atom+Function  
  ----- ------------  ---------------      ----- ------------  ---------------
   306      0.900176  7 Cl s                308      0.112300  7 Cl s          
    59      0.034810  2 C  s                307     -0.029900  7 Cl s          

 Vector    9  Occ=1.000000D+00  E=-7.064183D+00
              MO Center= -1.7D+00,  1.5D-01,  2.2D+00, r^2= 5.9D-02
   Bfn.  Coefficient  Atom+Function         Bfn.  Coefficient  Atom+Function  
  ----- ------------  ---------------      ----- ------------  ---------------
   252      0.911152  6 Cl px               254     -0.462477  6 Cl pz         
   255      0.106201  6 Cl px                59     -0.093372  2 C  s          
   253     -0.078222  6 Cl py               257     -0.051023  6 Cl pz         
   261      0.045911  6 Cl px               288     -0.039726  6 Cl fxyy       
   290     -0.038628  6 Cl fxzz             285     -0.038090  6 Cl fxxx       

 Vector   10  Occ=1.000000D+00  E=-7.063785D+00
              MO Center=  8.5D-01, -1.4D+00,  2.3D+00, r^2= 5.9D-02
   Bfn.  Coefficient  Atom+Function         Bfn.  Coefficient  Atom+Function  
  ----- ------------  ---------------      ----- ------------  ---------------
   312      0.747924  7 Cl py               313     -0.510288  7 Cl pz         
   311     -0.480047  7 Cl px                59     -0.091784  2 C  s          
   315      0.087111  7 Cl py               314     -0.056461  7 Cl px         
   316     -0.056589  7 Cl pz               321      0.038123  7 Cl py         
   345     -0.031561  7 Cl fxxy             350     -0.031606  7 Cl fyyy       

 Vector   11  Occ=1.000000D+00  E=-7.053267D+00
              MO Center= -1.7D+00,  1.5D-01,  2.2D+00, r^2= 5.8D-02
   Bfn.  Coefficient  Atom+Function         Bfn.  Coefficient  Atom+Function  
  ----- ------------  ---------------      ----- ------------  ---------------
   254      0.894939  6 Cl pz               252      0.451091  6 Cl px         
   253     -0.069109  6 Cl py               257      0.066561  6 Cl pz         
   260      0.040140  6 Cl pz               255      0.036122  6 Cl px         
     4      0.034972  1 C  s                292     -0.027083  6 Cl fyyz       
   287     -0.026860  6 Cl fxxz             294     -0.026784  6 Cl fzzz       

 Vector   12  Occ=1.000000D+00  E=-7.052856D+00
              MO Center=  8.5D-01, -1.4D+00,  2.3D+00, r^2= 5.8D-02
   Bfn.  Coefficient  Atom+Function         Bfn.  Coefficient  Atom+Function  
  ----- ------------  ---------------      ----- ------------  ---------------
   313      0.867282  7 Cl pz               312      0.379061  7 Cl py         
   311     -0.336657  7 Cl px               316      0.064397  7 Cl pz         
   319      0.038920  7 Cl pz                 4      0.035421  1 C  s          
   315      0.030422  7 Cl py               314     -0.026354  7 Cl px         
   346     -0.026210  7 Cl fxxz             351     -0.026145  7 Cl fyyz       

 Vector   13  Occ=1.000000D+00  E=-7.051831D+00
              MO Center= -1.7D+00,  1.5D-01,  2.2D+00, r^2= 5.8D-02
   Bfn.  Coefficient  Atom+Function         Bfn.  Coefficient  Atom+Function  
  ----- ------------  ---------------      ----- ------------  ---------------
   253      0.998800  6 Cl py               252      0.099332  6 Cl px         
   256      0.074407  6 Cl py               259      0.044681  6 Cl py         
   291     -0.030126  6 Cl fyyy             293     -0.029854  6 Cl fyzz       
   223     -0.029407  5 H  s                286     -0.029534  6 Cl fxxy       
    68      0.027170  2 C  py               254      0.027202  6 Cl pz         

 Vector   14  Occ=1.000000D+00  E=-7.051431D+00
              MO Center=  8.5D-01, -1.4D+00,  2.3D+00, r^2= 5.8D-02
   Bfn.  Coefficient  Atom+Function         Bfn.  Coefficient  Atom+Function  
  ----- ------------  ---------------      ----- ------------  ---------------
   311      0.821273  7 Cl px               312      0.573535  7 Cl py         
   313      0.068343  7 Cl pz               314      0.061062  7 Cl px         
   315      0.042698  7 Cl py               317      0.036695  7 Cl px         
   223     -0.029327  5 H  s                318      0.025837  7 Cl py         

 Vector   15  Occ=1.000000D+00  E=-1.038698D+00
              MO Center=  3.2D-02,  3.8D-02, -3.8D-01, r^2= 1.1D+00
   Bfn.  Coefficient  Atom+Function         Bfn.  Coefficient  Atom+Function  
  ----- ------------  ---------------      ----- ------------  ---------------
   112      0.296120  3 O  s                167      0.279115  4 O  s          
     2      0.275937  1 C  s                114      0.160872  3 O  s          
   169      0.135573  4 O  s                115      0.084233  3 O  s          
   113      0.083616  3 O  s                170      0.081768  4 O  s          
     3      0.079881  1 C  s                 59      0.079404  2 C  s          

 Vector   16  Occ=1.000000D+00  E=-9.649496D-01
              MO Center= -2.6D-03, -2.6D-02, -4.2D-01, r^2= 1.3D+00
   Bfn.  Coefficient  Atom+Function         Bfn.  Coefficient  Atom+Function  
  ----- ------------  ---------------      ----- ------------  ---------------
   167     -0.342247  4 O  s                112      0.331368  3 O  s          
   114      0.293139  3 O  s                169     -0.294410  4 O  s          
     7      0.144813  1 C  py               168     -0.094546  4 O  s          
   113      0.091222  3 O  s                  6      0.081816  1 C  px         
   172     -0.052262  4 O  py               175     -0.050634  4 O  py         

 Vector   17  Occ=1.000000D+00  E=-8.593206D-01
              MO Center= -2.7D-01, -3.4D-01,  1.9D+00, r^2= 2.1D+00
   Bfn.  Coefficient  Atom+Function         Bfn.  Coefficient  Atom+Function  
  ----- ------------  ---------------      ----- ------------  ---------------
   248      0.333813  6 Cl s                307      0.330892  7 Cl s          
    59      0.264277  2 C  s                 57      0.257545  2 C  s          
   250      0.211396  6 Cl s                309      0.209669  7 Cl s          
   222      0.075102  5 H  s                223     -0.073614  5 H  s          
   167     -0.058428  4 O  s                 58      0.051496  2 C  s          

 Vector   18  Occ=1.000000D+00  E=-7.908379D-01
              MO Center= -3.7D-01, -5.3D-01,  2.1D+00, r^2= 2.7D+00
   Bfn.  Coefficient  Atom+Function         Bfn.  Coefficient  Atom+Function  
  ----- ------------  ---------------      ----- ------------  ---------------
   307     -0.435070  7 Cl s                248      0.432894  6 Cl s          
   309     -0.307824  7 Cl s                250      0.305694  6 Cl s          
    61     -0.068521  2 C  px                64     -0.053785  2 C  px         
   251      0.049362  6 Cl s                310     -0.049081  7 Cl s          
   308     -0.042051  7 Cl s                249      0.041830  6 Cl s          

 Vector   19  Occ=1.000000D+00  E=-6.726581D-01
              MO Center= -1.0D-01, -1.0D-01,  1.3D+00, r^2= 2.9D+00
   Bfn.  Coefficient  Atom+Function         Bfn.  Coefficient  Atom+Function  
  ----- ------------  ---------------      ----- ------------  ---------------
    57      0.298221  2 C  s                248     -0.265406  6 Cl s          
   307     -0.265229  7 Cl s                 59      0.245678  2 C  s          
   250     -0.205478  6 Cl s                309     -0.205848  7 Cl s          
     2      0.126482  1 C  s                  8      0.123446  1 C  pz         
   112     -0.113576  3 O  s                 11      0.111534  1 C  pz         

 Vector   20  Occ=1.000000D+00  E=-5.396250D-01
              MO Center= -2.1D-02,  1.7D-02,  9.8D-01, r^2= 3.0D+00
   Bfn.  Coefficient  Atom+Function         Bfn.  Coefficient  Atom+Function  
  ----- ------------  ---------------      ----- ------------  ---------------
    59      0.248998  2 C  s                  2     -0.225256  1 C  s          
    63      0.174550  2 C  pz               167      0.148318  4 O  s          
   222      0.142216  5 H  s                 66      0.137246  2 C  pz         
    57      0.131790  2 C  s                112      0.119298  3 O  s          
     4     -0.111572  1 C  s                221      0.109761  5 H  s          

 Vector   21  Occ=1.000000D+00  E=-4.773100D-01
              MO Center=  1.9D-01,  3.8D-01,  5.0D-01, r^2= 3.2D+00
   Bfn.  Coefficient  Atom+Function         Bfn.  Coefficient  Atom+Function  
  ----- ------------  ---------------      ----- ------------  ---------------
   112      0.188698  3 O  s                114      0.172748  3 O  s          
   117      0.162856  3 O  py               120      0.154132  3 O  py         
    62     -0.144272  2 C  py                65     -0.123322  2 C  py         
     4     -0.119664  1 C  s                  2     -0.117280  1 C  s          
    59      0.117432  2 C  s                  8      0.096520  1 C  pz         

 Vector   22  Occ=1.000000D+00  E=-4.675447D-01
              MO Center= -2.5D-01, -3.5D-01,  3.8D-01, r^2= 3.5D+00
   Bfn.  Coefficient  Atom+Function         Bfn.  Coefficient  Atom+Function  
  ----- ------------  ---------------      ----- ------------  ---------------
   167      0.170776  4 O  s                172     -0.167404  4 O  py         
   169      0.161047  4 O  s                175     -0.156914  4 O  py         
     8      0.147587  1 C  pz                 2     -0.110458  1 C  s          
    11      0.109029  1 C  pz               255     -0.105355  6 Cl px         
    63     -0.102378  2 C  pz                59     -0.100622  2 C  s          

 Vector   23  Occ=1.000000D+00  E=-4.651221D-01
              MO Center= -1.7D-01, -2.8D-01,  1.2D+00, r^2= 3.6D+00
   Bfn.  Coefficient  Atom+Function         Bfn.  Coefficient  Atom+Function  
  ----- ------------  ---------------      ----- ------------  ---------------
    61      0.150660  2 C  px                 6      0.131666  1 C  px         
   309     -0.128801  7 Cl s                 64      0.127532  2 C  px         
   250      0.123495  6 Cl s                255     -0.119817  6 Cl px         
     9      0.117561  1 C  px               315      0.118007  7 Cl py         
   307     -0.114794  7 Cl s                258     -0.111522  6 Cl px         

 Vector   24  Occ=1.000000D+00  E=-4.352056D-01
              MO Center= -7.5D-02, -1.4D-01,  1.5D-01, r^2= 3.6D+00
   Bfn.  Coefficient  Atom+Function         Bfn.  Coefficient  Atom+Function  
  ----- ------------  ---------------      ----- ------------  ---------------
    59      0.285514  2 C  s                223     -0.179913  5 H  s          
     7      0.153775  1 C  py               172     -0.148425  4 O  py         
   175     -0.141954  4 O  py               117     -0.139556  3 O  py         
   120     -0.134953  3 O  py               173     -0.131303  4 O  pz         
   167      0.128803  4 O  s                176     -0.129039  4 O  pz         

 Vector   25  Occ=1.000000D+00  E=-4.110867D-01
              MO Center= -1.3D-01, -1.7D-01,  5.4D-01, r^2= 3.7D+00
   Bfn.  Coefficient  Atom+Function         Bfn.  Coefficient  Atom+Function  
  ----- ------------  ---------------      ----- ------------  ---------------
     6      0.154393  1 C  px               116      0.150376  3 O  px         
   119      0.148498  3 O  px               171      0.145015  4 O  px         
   174      0.143216  4 O  px                 9      0.126296  1 C  px         
   255      0.123369  6 Cl px               258      0.121537  6 Cl px         
   315     -0.117621  7 Cl py               318     -0.111818  7 Cl py         

 Vector   26  Occ=1.000000D+00  E=-3.508786D-01
              MO Center= -2.6D-01, -3.4D-01,  1.5D+00, r^2= 4.4D+00
   Bfn.  Coefficient  Atom+Function         Bfn.  Coefficient  Atom+Function  
  ----- ------------  ---------------      ----- ------------  ---------------
   257      0.213091  6 Cl pz               316      0.203661  7 Cl pz         
   260      0.165206  6 Cl pz               319      0.158340  7 Cl pz         
   121      0.154932  3 O  pz               118      0.151419  3 O  pz         
   314     -0.133727  7 Cl px               176      0.117593  4 O  pz         
   263      0.117284  6 Cl pz               173      0.115598  4 O  pz         

 Vector   27  Occ=1.000000D+00  E=-3.260832D-01
              MO Center= -3.7D-01, -4.4D-01,  1.9D+00, r^2= 4.1D+00
   Bfn.  Coefficient  Atom+Function         Bfn.  Coefficient  Atom+Function  
  ----- ------------  ---------------      ----- ------------  ---------------
   257      0.215113  6 Cl pz               316     -0.214609  7 Cl pz         
   256      0.170689  6 Cl py               260      0.162302  6 Cl pz         
   319     -0.162271  7 Cl pz               315     -0.160939  7 Cl py         
   259      0.127439  6 Cl py               318     -0.118958  7 Cl py         
   263      0.117879  6 Cl pz               322     -0.116396  7 Cl pz         

 Vector   28  Occ=1.000000D+00  E=-3.167332D-01
              MO Center= -3.1D-01, -5.1D-01,  1.8D+00, r^2= 4.0D+00
   Bfn.  Coefficient  Atom+Function         Bfn.  Coefficient  Atom+Function  
  ----- ------------  ---------------      ----- ------------  ---------------
   256      0.241212  6 Cl py               315      0.217119  7 Cl py         
   259      0.180302  6 Cl py               318      0.172434  7 Cl py         
   314      0.162667  7 Cl px               262      0.140373  6 Cl py         
   321      0.130208  7 Cl py               317      0.116059  7 Cl px         
   176      0.107681  4 O  pz               173      0.103915  4 O  pz         

 Vector   29  Occ=1.000000D+00  E=-3.073913D-01
              MO Center= -4.0D-01, -5.8D-01,  2.2D+00, r^2= 3.6D+00
   Bfn.  Coefficient  Atom+Function         Bfn.  Coefficient  Atom+Function  
  ----- ------------  ---------------      ----- ------------  ---------------
   314      0.271751  7 Cl px               256     -0.240573  6 Cl py         
   317      0.215593  7 Cl px               259     -0.183000  6 Cl py         
   320      0.164421  7 Cl px               257      0.153011  6 Cl pz         
   262     -0.149349  6 Cl py               316     -0.137997  7 Cl pz         
   260      0.108518  6 Cl pz               255      0.103955  6 Cl px         

 Vector   30  Occ=1.000000D+00  E=-3.037427D-01
              MO Center= -6.2D-02, -1.1D-01, -2.4D-01, r^2= 2.9D+00
   Bfn.  Coefficient  Atom+Function         Bfn.  Coefficient  Atom+Function  
  ----- ------------  ---------------      ----- ------------  ---------------
   174     -0.242597  4 O  px               171     -0.239276  4 O  px         
   119      0.224987  3 O  px               116      0.221753  3 O  px         
   177     -0.145090  4 O  px               122      0.140525  3 O  px         
   175      0.133449  4 O  py               120     -0.131446  3 O  py         
   172      0.131634  4 O  py               117     -0.129555  3 O  py         

 Vector   31  Occ=1.000000D+00  E=-2.983812D-01
              MO Center=  1.6D-01,  2.4D-01, -2.0D-01, r^2= 2.8D+00
   Bfn.  Coefficient  Atom+Function         Bfn.  Coefficient  Atom+Function  
  ----- ------------  ---------------      ----- ------------  ---------------
   121      0.279564  3 O  pz               118      0.274748  3 O  pz         
   124      0.183496  3 O  pz               175      0.155708  4 O  py         
   172      0.151135  4 O  py               120      0.138439  3 O  py         
   176     -0.137707  4 O  pz               173     -0.135237  4 O  pz         
   117      0.133523  3 O  py               316     -0.096950  7 Cl pz         

 Vector   32  Occ=1.000000D+00  E=-2.933268D-01
              MO Center= -3.1D-01, -4.9D-01,  5.2D-01, r^2= 3.7D+00
   Bfn.  Coefficient  Atom+Function         Bfn.  Coefficient  Atom+Function  
  ----- ------------  ---------------      ----- ------------  ---------------
   176      0.259883  4 O  pz               173      0.257412  4 O  pz         
   179      0.169019  4 O  pz               257     -0.150844  6 Cl pz         
   316     -0.147880  7 Cl pz                63      0.143650  2 C  pz         
    66      0.132258  2 C  pz               260     -0.116116  6 Cl pz         
   319     -0.114279  7 Cl pz                69      0.107549  2 C  pz         

 Vector   33  Occ=0.000000D+00  E=-1.069461D-01
              MO Center= -1.8D-01, -1.6D-01,  9.8D-01, r^2= 3.9D+00
   Bfn.  Coefficient  Atom+Function         Bfn.  Coefficient  Atom+Function  
  ----- ------------  ---------------      ----- ------------  ---------------
    64      0.204138  2 C  px                61      0.194232  2 C  px         
     9      0.187032  1 C  px                 6      0.171848  1 C  px         
   255      0.143664  6 Cl px               119     -0.141701  3 O  px         
   116     -0.136028  3 O  px                12      0.134257  1 C  px         
   122     -0.131060  3 O  px               174     -0.128315  4 O  px         

 Vector   34  Occ=0.000000D+00  E=-9.725880D-02
              MO Center= -2.7D-01, -4.5D-01,  2.0D+00, r^2= 3.8D+00
   Bfn.  Coefficient  Atom+Function         Bfn.  Coefficient  Atom+Function  
  ----- ------------  ---------------      ----- ------------  ---------------
    59      1.096962  2 C  s                223     -0.465558  5 H  s          
    57      0.284255  2 C  s                  4     -0.244068  1 C  s          
   261     -0.240182  6 Cl px               255     -0.228151  6 Cl px         
    65     -0.213323  2 C  py               315     -0.180380  7 Cl py         
   321     -0.180465  7 Cl py               320      0.166734  7 Cl px         

 Vector   35  Occ=0.000000D+00  E=-2.694406D-02
              MO Center=  4.4D-01,  8.2D-01,  2.3D+00, r^2= 1.1D+01
   Bfn.  Coefficient  Atom+Function         Bfn.  Coefficient  Atom+Function  
  ----- ------------  ---------------      ----- ------------  ---------------
    60      1.676720  2 C  s                224      1.629771  5 H  s          
     5     -1.298198  1 C  s                310     -0.937158  7 Cl s          
   251     -0.894655  6 Cl s                 71     -0.873184  2 C  py         
     4     -0.707101  1 C  s                223      0.618495  5 H  s          
    68     -0.496726  2 C  py                70     -0.489935  2 C  px         

 Vector   36  Occ=0.000000D+00  E=-1.654903D-02
              MO Center= -2.5D-01, -2.8D-01,  9.7D-01, r^2= 5.9D+00
   Bfn.  Coefficient  Atom+Function         Bfn.  Coefficient  Atom+Function  
  ----- ------------  ---------------      ----- ------------  ---------------
   251      0.905135  6 Cl s                310     -0.797423  7 Cl s          
    70      0.528531  2 C  px               264      0.385005  6 Cl px         
   324     -0.343147  7 Cl py                71     -0.254608  2 C  py         
     9     -0.251117  1 C  px                12     -0.249293  1 C  px         
     6     -0.234089  1 C  px                64      0.228214  2 C  px         

 Vector   37  Occ=0.000000D+00  E= 8.995264D-03
              MO Center= -2.9D-01, -4.3D-01,  1.1D+00, r^2= 1.4D+01
   Bfn.  Coefficient  Atom+Function         Bfn.  Coefficient  Atom+Function  
  ----- ------------  ---------------      ----- ------------  ---------------
    60      7.866490  2 C  s                310     -2.459600  7 Cl s          
   251     -2.444598  6 Cl s                 59     -1.921405  2 C  s          
   170     -1.768457  4 O  s                223      1.495275  5 H  s          
   115     -1.404427  3 O  s                 71     -1.353257  2 C  py         
    69     -0.934336  2 C  pz                88     -0.928444  2 C  dyy        

 Vector   38  Occ=0.000000D+00  E= 1.554826D-02
              MO Center= -2.1D-02,  1.3D-02,  1.2D+00, r^2= 1.9D+01
   Bfn.  Coefficient  Atom+Function         Bfn.  Coefficient  Atom+Function  
  ----- ------------  ---------------      ----- ------------  ---------------
     5      6.346977  1 C  s                 59      2.625530  2 C  s          
    60     -2.281941  2 C  s                 17      2.209020  1 C  pz         
   223     -2.071872  5 H  s                251     -2.079113  6 Cl s          
    72      1.982726  2 C  pz               310     -1.935477  7 Cl s          
    85      0.849310  2 C  dxx               88      0.723396  2 C  dyy        

 Vector   39  Occ=0.000000D+00  E= 1.784384D-02
              MO Center=  3.1D-02,  1.0D-01,  1.6D+00, r^2= 1.6D+01
   Bfn.  Coefficient  Atom+Function         Bfn.  Coefficient  Atom+Function  
  ----- ------------  ---------------      ----- ------------  ---------------
   310     -2.324413  7 Cl s                251      2.239841  6 Cl s          
    70      1.467414  2 C  px                71     -0.905631  2 C  py         
    67      0.639659  2 C  px                87      0.630427  2 C  dxz        
   264      0.581678  6 Cl px               261      0.478232  6 Cl px         
   321     -0.479385  7 Cl py               324     -0.463858  7 Cl py         

 Vector   40  Occ=0.000000D+00  E= 3.859924D-02
              MO Center=  1.4D-01,  3.1D-01,  1.2D+00, r^2= 1.6D+01
   Bfn.  Coefficient  Atom+Function         Bfn.  Coefficient  Atom+Function  
  ----- ------------  ---------------      ----- ------------  ---------------
     5      7.186653  1 C  s                 60     -5.264733  2 C  s          
    72      3.584707  2 C  pz               170     -2.533586  4 O  s          
   224     -2.382255  5 H  s                 71      2.332516  2 C  py         
     4      2.259916  1 C  s                251      1.595476  6 Cl s          
    16     -1.576996  1 C  py               310      1.571903  7 Cl s          

 Vector   41  Occ=0.000000D+00  E= 4.864851D-02
              MO Center= -3.9D-01, -5.6D-01,  1.8D+00, r^2= 1.3D+01
   Bfn.  Coefficient  Atom+Function         Bfn.  Coefficient  Atom+Function  
  ----- ------------  ---------------      ----- ------------  ---------------
    60     14.259643  2 C  s                  5     -9.386196  1 C  s          
    59     -7.954551  2 C  s                 72     -3.808848  2 C  pz         
     4      3.173589  1 C  s                 85     -2.191424  2 C  dxx        
    90     -1.899508  2 C  dzz              223      1.810213  5 H  s          
    88     -1.743144  2 C  dyy              170     -1.524325  4 O  s          

 Vector   42  Occ=0.000000D+00  E= 5.456586D-02
              MO Center= -1.0D-01, -1.2D-01,  1.2D+00, r^2= 1.9D+01
   Bfn.  Coefficient  Atom+Function         Bfn.  Coefficient  Atom+Function  
  ----- ------------  ---------------      ----- ------------  ---------------
    15      1.900108  1 C  px                70     -1.517382  2 C  px         
   310      1.452599  7 Cl s                251     -1.378294  6 Cl s          
    16     -1.098354  1 C  py                71      0.909451  2 C  py         
   325     -0.674864  7 Cl pz               266      0.611823  6 Cl pz         
   264     -0.554757  6 Cl px               180     -0.496425  4 O  px         

 Vector   43  Occ=0.000000D+00  E= 5.668795D-02
              MO Center= -1.4D-01, -1.5D-01,  5.5D-01, r^2= 1.8D+01
   Bfn.  Coefficient  Atom+Function         Bfn.  Coefficient  Atom+Function  
  ----- ------------  ---------------      ----- ------------  ---------------
     4      3.816345  1 C  s                 69      2.552121  2 C  pz         
    17     -2.490857  1 C  pz                 5     -2.475912  1 C  s          
    60      1.841077  2 C  s                115     -1.768484  3 O  s          
    59     -1.759013  2 C  s                223      1.732053  5 H  s          
    68     -1.522368  2 C  py                35      1.444344  1 C  dzz        

 Vector   44  Occ=0.000000D+00  E= 5.815001D-02
              MO Center= -1.6D-01, -2.3D-01,  1.9D+00, r^2= 1.6D+01
   Bfn.  Coefficient  Atom+Function         Bfn.  Coefficient  Atom+Function  
  ----- ------------  ---------------      ----- ------------  ---------------
    70      1.864127  2 C  px                67      1.817384  2 C  px         
    68     -1.232495  2 C  py               264     -1.135529  6 Cl px         
   324      1.104532  7 Cl py                71     -1.001033  2 C  py         
    15     -0.966838  1 C  px               309     -0.925907  7 Cl s          
   250      0.824193  6 Cl s                321     -0.745390  7 Cl py         

 Vector   45  Occ=0.000000D+00  E= 6.548991D-02
              MO Center=  5.0D-01,  9.2D-01,  1.4D+00, r^2= 2.2D+01
   Bfn.  Coefficient  Atom+Function         Bfn.  Coefficient  Atom+Function  
  ----- ------------  ---------------      ----- ------------  ---------------
     5     13.687100  1 C  s                 59     -5.829791  2 C  s          
   224     -5.418711  5 H  s                115     -5.266517  3 O  s          
     4      4.841176  1 C  s                 72      3.423427  2 C  pz         
    17      2.498936  1 C  pz                71      1.968958  2 C  py         
    16      1.564187  1 C  py                85     -1.480694  2 C  dxx        

 Vector   46  Occ=0.000000D+00  E= 6.886009D-02
              MO Center=  2.7D-01,  5.6D-01,  1.6D+00, r^2= 1.8D+01
   Bfn.  Coefficient  Atom+Function         Bfn.  Coefficient  Atom+Function  
  ----- ------------  ---------------      ----- ------------  ---------------
    60     16.546851  2 C  s                  5     -8.230930  1 C  s          
   223     -5.002292  5 H  s                 68      2.760397  2 C  py         
    17     -2.655204  1 C  pz               310     -2.617137  7 Cl s          
   251     -2.600294  6 Cl s                 69      2.269336  2 C  pz         
   224     -2.216989  5 H  s                  4      2.157075  1 C  s          

 Vector   47  Occ=0.000000D+00  E= 8.735395D-02
              MO Center= -3.3D-01, -4.8D-01,  7.5D-01, r^2= 1.8D+01
   Bfn.  Coefficient  Atom+Function         Bfn.  Coefficient  Atom+Function  
  ----- ------------  ---------------      ----- ------------  ---------------
    60     18.314326  2 C  s                  5    -13.356820  1 C  s          
    59     -4.071888  2 C  s                 17     -3.917372  1 C  pz         
   170      3.927839  4 O  s                251     -3.806469  6 Cl s          
   310     -3.794991  7 Cl s                264     -1.747446  6 Cl px         
   324     -1.652070  7 Cl py                14      1.507992  1 C  pz         

 Vector   48  Occ=0.000000D+00  E= 9.133511D-02
              MO Center= -4.3D-01, -6.6D-01,  1.0D+00, r^2= 1.7D+01
   Bfn.  Coefficient  Atom+Function         Bfn.  Coefficient  Atom+Function  
  ----- ------------  ---------------      ----- ------------  ---------------
    70      3.893152  2 C  px                15     -2.781760  1 C  px         
    71     -2.262555  2 C  py                16      1.614337  1 C  py         
   310     -1.329418  7 Cl s                251      1.236369  6 Cl s          
   265      1.201222  6 Cl py               266      1.092174  6 Cl pz         
   325     -1.089925  7 Cl pz               323     -1.022005  7 Cl px         

 Vector   49  Occ=0.000000D+00  E= 9.564017D-02
              MO Center= -5.5D-01, -8.1D-01,  2.4D+00, r^2= 1.7D+01
   Bfn.  Coefficient  Atom+Function         Bfn.  Coefficient  Atom+Function  
  ----- ------------  ---------------      ----- ------------  ---------------
   323      1.995083  7 Cl px               265     -1.710793  6 Cl py         
    70     -1.665133  2 C  px               266      1.312396  6 Cl pz         
   325     -1.203722  7 Cl pz                71      0.936533  2 C  py         
   264      0.888573  6 Cl px                15     -0.738723  1 C  px         
    67      0.556400  2 C  px               263     -0.509672  6 Cl pz         

 Vector   50  Occ=0.000000D+00  E= 9.812488D-02
              MO Center= -3.4D-01, -5.1D-01,  1.4D+00, r^2= 1.7D+01
   Bfn.  Coefficient  Atom+Function         Bfn.  Coefficient  Atom+Function  
  ----- ------------  ---------------      ----- ------------  ---------------
     5      8.419279  1 C  s                 59      7.761857  2 C  s          
    60     -5.506612  2 C  s                 71      5.162849  2 C  py         
     4     -4.880601  1 C  s                223     -4.865967  5 H  s          
    16     -3.134662  1 C  py                70      3.014044  2 C  px         
    90      2.622777  2 C  dzz               88      2.135217  2 C  dyy        

 Vector   51  Occ=0.000000D+00  E= 1.135572D-01
              MO Center=  1.8D-01,  3.2D-01, -1.6D-02, r^2= 1.7D+01
   Bfn.  Coefficient  Atom+Function         Bfn.  Coefficient  Atom+Function  
  ----- ------------  ---------------      ----- ------------  ---------------
     4     10.455906  1 C  s                 59     -8.236055  2 C  s          
   115     -7.281873  3 O  s                 60      6.599229  2 C  s          
   170     -5.308422  4 O  s                 35      4.292266  1 C  dzz        
   251     -3.069354  6 Cl s                 33      2.925792  1 C  dyy        
   310     -2.859355  7 Cl s                126      2.746141  3 O  py         

 Vector   52  Occ=0.000000D+00  E= 1.214198D-01
              MO Center= -1.4D-01, -1.8D-01,  1.2D+00, r^2= 1.5D+01
   Bfn.  Coefficient  Atom+Function         Bfn.  Coefficient  Atom+Function  
  ----- ------------  ---------------      ----- ------------  ---------------
     5     28.435607  1 C  s                 60    -25.228337  2 C  s          
    72     11.331254  2 C  pz                59      8.394407  2 C  s          
     4     -3.591650  1 C  s                 85      2.842643  2 C  dxx        
    90      2.694167  2 C  dzz               88      2.577030  2 C  dyy        
    17      2.441551  1 C  pz                14     -2.320320  1 C  pz         

 Vector   53  Occ=0.000000D+00  E= 1.254021D-01
              MO Center= -2.0D-01, -3.3D-01,  5.6D-01, r^2= 1.6D+01
   Bfn.  Coefficient  Atom+Function         Bfn.  Coefficient  Atom+Function  
  ----- ------------  ---------------      ----- ------------  ---------------
   310     -4.441415  7 Cl s                251      4.114981  6 Cl s          
   309      2.878133  7 Cl s                250     -2.793805  6 Cl s          
    67     -2.170053  2 C  px                70      1.658578  2 C  px         
   180     -1.419446  4 O  px                68      1.319844  2 C  py         
   261     -1.309166  6 Cl px                86      1.260672  2 C  dxy        

 Vector   54  Occ=0.000000D+00  E= 1.428545D-01
              MO Center= -2.0D-01, -2.0D-01,  1.3D+00, r^2= 1.6D+01
   Bfn.  Coefficient  Atom+Function         Bfn.  Coefficient  Atom+Function  
  ----- ------------  ---------------      ----- ------------  ---------------
     5     10.601303  1 C  s                  4      9.744830  1 C  s          
    60     -7.528574  2 C  s                170     -7.216707  4 O  s          
    72      6.362424  2 C  pz               115     -6.358830  3 O  s          
    59     -5.104954  2 C  s                251      4.850961  6 Cl s          
   310      4.387708  7 Cl s                224     -3.820890  5 H  s          

 Vector   55  Occ=0.000000D+00  E= 1.589213D-01
              MO Center= -2.5D-02, -2.7D-02,  9.4D-01, r^2= 1.6D+01
   Bfn.  Coefficient  Atom+Function         Bfn.  Coefficient  Atom+Function  
  ----- ------------  ---------------      ----- ------------  ---------------
   223     10.441991  5 H  s                  5    -10.033524  1 C  s          
     4     -9.322621  1 C  s                170      8.428461  4 O  s          
   310      7.557217  7 Cl s                251      7.157923  6 Cl s          
    60     -5.990438  2 C  s                 72     -5.261782  2 C  pz         
    69     -4.201670  2 C  pz                89     -3.384102  2 C  dyz        

 Vector   56  Occ=0.000000D+00  E= 1.639410D-01
              MO Center=  2.2D-01, -1.9D-01,  1.6D+00, r^2= 1.6D+01
   Bfn.  Coefficient  Atom+Function         Bfn.  Coefficient  Atom+Function  
  ----- ------------  ---------------      ----- ------------  ---------------
   310     -9.027177  7 Cl s                  5      8.740353  1 C  s          
    59      7.597396  2 C  s                 71     -7.400902  2 C  py         
     4     -6.237844  1 C  s                 14     -5.195392  1 C  pz         
   251     -5.096760  6 Cl s                 69     -4.983000  2 C  pz         
   115     -3.842179  3 O  s                170     -3.163177  4 O  s          

 Vector   57  Occ=0.000000D+00  E= 1.651484D-01
              MO Center= -3.3D-01,  1.9D-01,  1.5D+00, r^2= 1.9D+01
   Bfn.  Coefficient  Atom+Function         Bfn.  Coefficient  Atom+Function  
  ----- ------------  ---------------      ----- ------------  ---------------
   251     11.381076  6 Cl s                310     -8.185993  7 Cl s          
    70      6.411762  2 C  px                 5     -2.241999  1 C  s          
    67      2.060676  2 C  px                71     -1.959695  2 C  py         
   261      1.955391  6 Cl px                59     -1.729149  2 C  s          
   125     -1.452843  3 O  px                87      1.438861  2 C  dxz        

 Vector   58  Occ=0.000000D+00  E= 1.730290D-01
              MO Center= -1.6D-02,  4.8D-02,  7.4D-01, r^2= 1.3D+01
   Bfn.  Coefficient  Atom+Function         Bfn.  Coefficient  Atom+Function  
  ----- ------------  ---------------      ----- ------------  ---------------
    60     23.793169  2 C  s                 59    -14.806853  2 C  s          
     5    -12.800521  1 C  s                223      9.515052  5 H  s          
    72     -4.657567  2 C  pz                88     -4.326402  2 C  dyy        
    85     -4.010707  2 C  dxx              251     -3.809866  6 Cl s          
    68     -3.540750  2 C  py               170     -3.363432  4 O  s          

 Vector   59  Occ=0.000000D+00  E= 1.858804D-01
              MO Center=  7.8D-02,  1.3D-01,  1.1D+00, r^2= 1.1D+01
   Bfn.  Coefficient  Atom+Function         Bfn.  Coefficient  Atom+Function  
  ----- ------------  ---------------      ----- ------------  ---------------
    70      4.396228  2 C  px                67      3.560035  2 C  px         
    87      3.185642  2 C  dxz               15     -3.143434  1 C  px         
    71     -2.519263  2 C  py               231     -2.346333  5 H  px         
    68     -2.047593  2 C  py                16      1.948310  1 C  py         
   261      1.870735  6 Cl px               321     -1.677839  7 Cl py         

 Vector   60  Occ=0.000000D+00  E= 1.939987D-01
              MO Center= -1.6D-01, -2.6D-01, -7.2D-01, r^2= 1.4D+01
   Bfn.  Coefficient  Atom+Function         Bfn.  Coefficient  Atom+Function  
  ----- ------------  ---------------      ----- ------------  ---------------
     5     18.238992  1 C  s                 60    -15.883966  2 C  s          
   115     -9.239730  3 O  s                 17      6.891939  1 C  pz         
    69     -4.728936  2 C  pz               182     -4.141428  4 O  pz         
   223      3.906778  5 H  s                  4      3.357551  1 C  s          
   170     -2.847132  4 O  s                 14     -2.829801  1 C  pz         

 Vector   61  Occ=0.000000D+00  E= 1.971638D-01
              MO Center= -8.2D-02,  1.4D-01,  2.5D-01, r^2= 1.5D+01
   Bfn.  Coefficient  Atom+Function         Bfn.  Coefficient  Atom+Function  
  ----- ------------  ---------------      ----- ------------  ---------------
    60     11.355924  2 C  s                  5     -5.669203  1 C  s          
    59     -5.601096  2 C  s                251     -4.536457  6 Cl s          
   170      3.628474  4 O  s                181      2.896216  4 O  py         
   223      2.766646  5 H  s                 16     -2.694435  1 C  py         
    14      2.402003  1 C  pz                15      2.363993  1 C  px         

 Vector   62  Occ=0.000000D+00  E= 1.976118D-01
              MO Center=  2.3D-01,  1.2D-01,  3.4D-01, r^2= 1.5D+01
   Bfn.  Coefficient  Atom+Function         Bfn.  Coefficient  Atom+Function  
  ----- ------------  ---------------      ----- ------------  ---------------
    60     16.291353  2 C  s                 59     -9.025131  2 C  s          
   170      7.897905  4 O  s                  5     -7.607132  1 C  s          
   310     -5.798842  7 Cl s                 34     -5.144972  1 C  dyz        
    14      4.887088  1 C  pz                69      3.855859  2 C  pz         
     4      3.826659  1 C  s                251     -3.818416  6 Cl s          

 Vector   63  Occ=0.000000D+00  E= 1.991376D-01
              MO Center= -1.1D-01, -1.9D-01,  1.2D+00, r^2= 1.1D+01
   Bfn.  Coefficient  Atom+Function         Bfn.  Coefficient  Atom+Function  
  ----- ------------  ---------------      ----- ------------  ---------------
    67      9.145971  2 C  px               309     -6.443935  7 Cl s          
   250      6.059827  6 Cl s                 68     -4.426039  2 C  py         
   261      4.023655  6 Cl px               310      3.973112  7 Cl s          
   321     -3.329360  7 Cl py                88      3.093414  2 C  dyy        
    60     -2.998497  2 C  s                251     -2.650958  6 Cl s          

 Vector   64  Occ=0.000000D+00  E= 2.043447D-01
              MO Center= -4.9D-02, -2.3D-01,  1.0D-01, r^2= 1.6D+01
   Bfn.  Coefficient  Atom+Function         Bfn.  Coefficient  Atom+Function  
  ----- ------------  ---------------      ----- ------------  ---------------
    60     16.451529  2 C  s                 72     -9.629383  2 C  pz         
    59     -8.231833  2 C  s                 69     -6.119015  2 C  pz         
    16     -5.921879  1 C  py               223      5.869723  5 H  s          
    17      4.175870  1 C  pz               251     -4.068255  6 Cl s          
    15     -3.735055  1 C  px               127     -3.698988  3 O  pz         

 Vector   65  Occ=0.000000D+00  E= 2.142614D-01
              MO Center= -5.6D-02,  1.2D-01,  3.4D-01, r^2= 1.4D+01
   Bfn.  Coefficient  Atom+Function         Bfn.  Coefficient  Atom+Function  
  ----- ------------  ---------------      ----- ------------  ---------------
   223     15.797961  5 H  s                 68     -7.778079  2 C  py         
     5     -7.662681  1 C  s                115     -7.648219  3 O  s          
     4      7.498354  1 C  s                 59     -6.322295  2 C  s          
    60      5.632230  2 C  s                 33      5.076986  1 C  dyy        
   170     -4.744200  4 O  s                 72     -4.128841  2 C  pz         

 Vector   66  Occ=0.000000D+00  E= 2.258343D-01
              MO Center= -1.8D-01, -2.6D-01,  1.0D+00, r^2= 1.4D+01
   Bfn.  Coefficient  Atom+Function         Bfn.  Coefficient  Atom+Function  
  ----- ------------  ---------------      ----- ------------  ---------------
    60     45.104729  2 C  s                  5    -39.860390  1 C  s          
   310     -8.979430  7 Cl s                251     -8.877493  6 Cl s          
   170      8.160367  4 O  s                 59     -7.825028  2 C  s          
    72     -7.837475  2 C  pz               115      6.434793  3 O  s          
     4     -4.427638  1 C  s                 71     -4.339679  2 C  py         

 Vector   67  Occ=0.000000D+00  E= 2.426113D-01
              MO Center= -2.9D-01, -2.9D-01,  1.3D+00, r^2= 1.2D+01
   Bfn.  Coefficient  Atom+Function         Bfn.  Coefficient  Atom+Function  
  ----- ------------  ---------------      ----- ------------  ---------------
    67      5.148981  2 C  px               251     -3.524234  6 Cl s          
   250      2.721147  6 Cl s                 70      2.549820  2 C  px         
    32     -2.429890  1 C  dxz              310      2.336173  7 Cl s          
    68     -2.301235  2 C  py               309     -2.146757  7 Cl s          
    12     -2.049938  1 C  px                60      1.653846  2 C  s          

 Vector   68  Occ=0.000000D+00  E= 2.458738D-01
              MO Center=  1.1D-01,  1.8D-01,  1.8D+00, r^2= 1.5D+01
   Bfn.  Coefficient  Atom+Function         Bfn.  Coefficient  Atom+Function  
  ----- ------------  ---------------      ----- ------------  ---------------
    60     23.650086  2 C  s                115    -10.934180  3 O  s          
   310     -8.342796  7 Cl s                251     -7.841451  6 Cl s          
    59     -4.826663  2 C  s                223     -4.576392  5 H  s          
    68      4.225441  2 C  py                 4      3.977788  1 C  s          
   224     -3.794156  5 H  s                 86      3.288568  2 C  dxy        

 Vector   69  Occ=0.000000D+00  E= 2.581915D-01
              MO Center=  2.2D-01,  1.8D-01,  8.4D-01, r^2= 1.3D+01
   Bfn.  Coefficient  Atom+Function         Bfn.  Coefficient  Atom+Function  
  ----- ------------  ---------------      ----- ------------  ---------------
     4     15.459732  1 C  s                 59    -13.446802  2 C  s          
    60     13.141429  2 C  s                 69      9.984564  2 C  pz         
   115     -7.780654  3 O  s                223      7.815315  5 H  s          
    14      6.984162  1 C  pz               170      5.862541  4 O  s          
    90     -5.674631  2 C  dzz               88     -3.869494  2 C  dyy        

 Vector   70  Occ=0.000000D+00  E= 2.599766D-01
              MO Center= -4.4D-01, -4.5D-01,  2.0D+00, r^2= 8.1D+00
   Bfn.  Coefficient  Atom+Function         Bfn.  Coefficient  Atom+Function  
  ----- ------------  ---------------      ----- ------------  ---------------
    60      3.183159  2 C  s                  4      3.119117  1 C  s          
    59     -2.817568  2 C  s                 69      1.834745  2 C  pz         
   115     -1.655467  3 O  s                 88     -1.386097  2 C  dyy        
    14      1.335617  1 C  pz                67     -1.290151  2 C  px         
    87      1.254738  2 C  dxz              223      1.223866  5 H  s          

 Vector   71  Occ=0.000000D+00  E= 2.737739D-01
              MO Center= -2.5D-01, -4.0D-01,  1.5D+00, r^2= 1.1D+01
   Bfn.  Coefficient  Atom+Function         Bfn.  Coefficient  Atom+Function  
  ----- ------------  ---------------      ----- ------------  ---------------
     4     12.030963  1 C  s                170     -9.757206  4 O  s          
    59     -5.670231  2 C  s                 69      5.371401  2 C  pz         
    33      4.635535  1 C  dyy              115     -4.123596  3 O  s          
     5      4.033008  1 C  s                 89      3.702156  2 C  dyz        
    72      3.646996  2 C  pz                86     -3.174353  2 C  dxy        

 Vector   72  Occ=0.000000D+00  E= 2.825475D-01
              MO Center= -5.7D-02,  3.0D-02,  1.9D+00, r^2= 1.1D+01
   Bfn.  Coefficient  Atom+Function         Bfn.  Coefficient  Atom+Function  
  ----- ------------  ---------------      ----- ------------  ---------------
    59     18.411115  2 C  s                 60    -13.057993  2 C  s          
     4    -12.443287  1 C  s                 68     -8.332005  2 C  py         
    85      7.568517  2 C  dxx               14     -6.663740  1 C  pz         
   309     -6.603247  7 Cl s                223      6.512051  5 H  s          
   250     -6.468325  6 Cl s                261     -5.738396  6 Cl px         

 Vector   73  Occ=0.000000D+00  E= 2.908881D-01
              MO Center= -1.2D-01, -7.3D-02,  2.0D+00, r^2= 1.1D+01
   Bfn.  Coefficient  Atom+Function         Bfn.  Coefficient  Atom+Function  
  ----- ------------  ---------------      ----- ------------  ---------------
    67      6.999648  2 C  px                68     -3.966726  2 C  py         
   309     -3.409942  7 Cl s                250      3.318701  6 Cl s          
    87      3.210494  2 C  dxz              321     -3.034627  7 Cl py         
   261      3.016449  6 Cl px               231     -2.326059  5 H  px         
   279      2.034060  6 Cl dxx              339      1.943723  7 Cl dxy        

 Vector   74  Occ=0.000000D+00  E= 2.943181D-01
              MO Center= -2.1D-01, -2.1D-01,  1.3D+00, r^2= 1.1D+01
   Bfn.  Coefficient  Atom+Function         Bfn.  Coefficient  Atom+Function  
  ----- ------------  ---------------      ----- ------------  ---------------
   223     29.799224  5 H  s                 59    -21.671071  2 C  s          
    68    -11.331242  2 C  py               115     -8.820295  3 O  s          
    88     -7.041791  2 C  dyy                4      6.256757  1 C  s          
    67     -6.261256  2 C  px                 5     -6.085194  1 C  s          
    90     -5.129323  2 C  dzz              232     -4.835876  5 H  py         

 Vector   75  Occ=0.000000D+00  E= 3.057384D-01
              MO Center= -5.6D-02, -3.6D-02,  5.6D-01, r^2= 1.2D+01
   Bfn.  Coefficient  Atom+Function         Bfn.  Coefficient  Atom+Function  
  ----- ------------  ---------------      ----- ------------  ---------------
    87      5.928495  2 C  dxz               32      4.566269  1 C  dxz        
   231     -3.408587  5 H  px                86      3.036951  2 C  dxy        
    89     -3.032975  2 C  dyz               85      2.569533  2 C  dxx        
    34     -2.549503  1 C  dyz               88     -2.500309  2 C  dyy        
   232      2.100662  5 H  py                12      1.808342  1 C  px         

 Vector   76  Occ=0.000000D+00  E= 3.193585D-01
              MO Center= -6.0D-02, -7.3D-02,  2.5D-01, r^2= 1.2D+01
   Bfn.  Coefficient  Atom+Function         Bfn.  Coefficient  Atom+Function  
  ----- ------------  ---------------      ----- ------------  ---------------
   223    -20.898380  5 H  s                  4     20.350001  1 C  s          
    35     11.497228  1 C  dzz               68     11.202428  2 C  py         
    14     10.643437  1 C  pz                69     10.521543  2 C  pz         
   170    -10.261628  4 O  s                 60      7.447704  2 C  s          
     5     -7.410533  1 C  s                115     -7.415865  3 O  s          

 Vector   77  Occ=0.000000D+00  E= 3.281011D-01
              MO Center= -6.1D-01, -9.6D-01,  2.0D+00, r^2= 1.1D+01
   Bfn.  Coefficient  Atom+Function         Bfn.  Coefficient  Atom+Function  
  ----- ------------  ---------------      ----- ------------  ---------------
    59      5.667027  2 C  s                223     -5.576537  5 H  s          
    68      3.082957  2 C  py                32      1.977069  1 C  dxz        
   320     -1.667920  7 Cl px                87      1.624659  2 C  dxz        
    70     -1.597154  2 C  px               232      1.390283  5 H  py         
   281      1.340485  6 Cl dxz              342     -1.331738  7 Cl dyz        

 Vector   78  Occ=0.000000D+00  E= 3.316425D-01
              MO Center= -1.1D-01, -1.2D-01,  2.9D-01, r^2= 1.2D+01
   Bfn.  Coefficient  Atom+Function         Bfn.  Coefficient  Atom+Function  
  ----- ------------  ---------------      ----- ------------  ---------------
    59     34.080313  2 C  s                223    -29.810055  5 H  s          
    68      9.111736  2 C  py                14     -7.695340  1 C  pz         
   232      7.565147  5 H  py                35     -6.683159  1 C  dzz        
    67      6.102459  2 C  px                88      5.216651  2 C  dyy        
   170     -5.164356  4 O  s                 89      4.694458  2 C  dyz        

 Vector   79  Occ=0.000000D+00  E= 3.453764D-01
              MO Center= -1.4D-01, -3.2D-01,  5.1D-01, r^2= 1.1D+01
   Bfn.  Coefficient  Atom+Function         Bfn.  Coefficient  Atom+Function  
  ----- ------------  ---------------      ----- ------------  ---------------
     4     24.247382  1 C  s                 59    -16.826294  2 C  s          
     5     15.476314  1 C  s                170    -14.412370  4 O  s          
    14      9.144169  1 C  pz                35      9.117627  1 C  dzz        
   115     -8.125727  3 O  s                 69      8.018008  2 C  pz         
    60     -7.544441  2 C  s                 90     -4.606299  2 C  dzz        

 Vector   80  Occ=0.000000D+00  E= 3.489129D-01
              MO Center= -2.8D-01, -3.8D-01,  1.4D+00, r^2= 1.0D+01
   Bfn.  Coefficient  Atom+Function         Bfn.  Coefficient  Atom+Function  
  ----- ------------  ---------------      ----- ------------  ---------------
    67     10.351177  2 C  px               309     -9.363341  7 Cl s          
   250      8.824315  6 Cl s                 87      6.784197  2 C  dxz        
    68     -6.525212  2 C  py               261      6.177034  6 Cl px         
   321     -5.193497  7 Cl py                89     -5.145998  2 C  dyz        
     4     -4.686495  1 C  s                 86     -4.135549  2 C  dxy        

 Vector   81  Occ=0.000000D+00  E= 3.628526D-01
              MO Center=  2.9D-01, -5.3D-02,  1.1D+00, r^2= 1.1D+01
   Bfn.  Coefficient  Atom+Function         Bfn.  Coefficient  Atom+Function  
  ----- ------------  ---------------      ----- ------------  ---------------
   115      7.451003  3 O  s                223     -7.420841  5 H  s          
    69      6.323282  2 C  pz                59      6.045946  2 C  s          
    86     -5.047544  2 C  dxy               88      4.428052  2 C  dyy        
   170      4.412094  4 O  s                309     -3.997890  7 Cl s          
    14      3.743182  1 C  pz                30     -3.722237  1 C  dxx        

 Vector   82  Occ=0.000000D+00  E= 3.657759D-01
              MO Center= -2.3D-01,  1.9D-01,  1.0D+00, r^2= 1.1D+01
   Bfn.  Coefficient  Atom+Function         Bfn.  Coefficient  Atom+Function  
  ----- ------------  ---------------      ----- ------------  ---------------
   223      9.114193  5 H  s                115     -7.202220  3 O  s          
    69     -7.025303  2 C  pz                85     -6.460496  2 C  dxx        
    59     -6.425187  2 C  s                250      4.512737  6 Cl s          
   170     -4.317327  4 O  s                 14     -4.151397  1 C  pz         
   261      3.869257  6 Cl px                33      3.690620  1 C  dyy        

 Vector   83  Occ=0.000000D+00  E= 3.759266D-01
              MO Center= -3.7D-02,  1.3D-02,  2.6D-01, r^2= 1.1D+01
   Bfn.  Coefficient  Atom+Function         Bfn.  Coefficient  Atom+Function  
  ----- ------------  ---------------      ----- ------------  ---------------
     5     33.558384  1 C  s                223    -21.307907  5 H  s          
    60    -20.526613  2 C  s                 59     19.524359  2 C  s          
   115    -15.335188  3 O  s                170    -11.692958  4 O  s          
    90      9.612102  2 C  dzz               14     -8.046370  1 C  pz         
    88      7.815151  2 C  dyy               85      6.884547  2 C  dxx        

 Vector   84  Occ=0.000000D+00  E= 3.862793D-01
              MO Center=  3.0D-01,  6.3D-01,  2.1D+00, r^2= 1.0D+01
   Bfn.  Coefficient  Atom+Function         Bfn.  Coefficient  Atom+Function  
  ----- ------------  ---------------      ----- ------------  ---------------
    59     45.578498  2 C  s                 60    -34.951769  2 C  s          
   223    -25.922858  5 H  s                  5     19.854695  1 C  s          
     4    -18.540803  1 C  s                 90     10.166811  2 C  dzz        
   232      9.209958  5 H  py                85      8.481591  2 C  dxx        
    88      6.975068  2 C  dyy               89      6.943281  2 C  dyz        

 Vector   85  Occ=0.000000D+00  E= 4.099818D-01
              MO Center=  3.8D-02,  6.9D-02,  1.2D+00, r^2= 1.1D+01
   Bfn.  Coefficient  Atom+Function         Bfn.  Coefficient  Atom+Function  
  ----- ------------  ---------------      ----- ------------  ---------------
     4     28.085666  1 C  s                223     23.984542  5 H  s          
    60    -19.482945  2 C  s                 89    -17.927641  2 C  dyz        
    69     11.054446  2 C  pz                87    -10.318614  2 C  dxz        
     5      9.664134  1 C  s                 59     -9.680360  2 C  s          
   309     -9.188592  7 Cl s                 14      8.738502  1 C  pz         

 Vector   86  Occ=0.000000D+00  E= 4.196572D-01
              MO Center=  8.0D-03,  1.5D-01,  1.1D+00, r^2= 1.1D+01
   Bfn.  Coefficient  Atom+Function         Bfn.  Coefficient  Atom+Function  
  ----- ------------  ---------------      ----- ------------  ---------------
    67      8.829016  2 C  px                86     -8.108333  2 C  dxy        
    87     -7.552112  2 C  dxz               88      7.246050  2 C  dyy        
   250      7.170863  6 Cl s                309     -6.617123  7 Cl s          
    85     -6.526173  2 C  dxx              231      6.237213  5 H  px         
   251     -5.714930  6 Cl s                 89      5.373134  2 C  dyz        

 Vector   87  Occ=0.000000D+00  E= 4.392178D-01
              MO Center=  8.1D-03,  1.1D-01,  1.2D+00, r^2= 9.2D+00
   Bfn.  Coefficient  Atom+Function         Bfn.  Coefficient  Atom+Function  
  ----- ------------  ---------------      ----- ------------  ---------------
    87      9.830102  2 C  dxz               12      6.537610  1 C  px         
   250      6.201314  6 Cl s                309     -6.055197  7 Cl s          
    89     -5.962134  2 C  dyz               32      4.979364  1 C  dxz        
    13     -4.550525  1 C  py               251     -4.160464  6 Cl s          
    86     -3.919097  2 C  dxy               85     -3.824460  2 C  dxx        

 Vector   88  Occ=0.000000D+00  E= 4.446371D-01
              MO Center= -4.3D-02, -1.4D-02,  4.8D-01, r^2= 7.9D+00
   Bfn.  Coefficient  Atom+Function         Bfn.  Coefficient  Atom+Function  
  ----- ------------  ---------------      ----- ------------  ---------------
     4     13.424963  1 C  s                 89     -9.768052  2 C  dyz        
    69      6.960220  2 C  pz               233      4.877190  5 H  pz         
   114     -4.763344  3 O  s                 87     -4.684366  2 C  dxz        
    90     -4.559025  2 C  dzz               13      4.433090  1 C  py         
   309     -4.305919  7 Cl s                250     -4.187570  6 Cl s          

 Vector   89  Occ=0.000000D+00  E= 4.524908D-01
              MO Center= -8.2D-02, -1.3D-01,  3.6D-01, r^2= 1.1D+01
   Bfn.  Coefficient  Atom+Function         Bfn.  Coefficient  Atom+Function  
  ----- ------------  ---------------      ----- ------------  ---------------
    59    -22.214518  2 C  s                  4     20.694747  1 C  s          
    34     12.651137  1 C  dyz              170    -11.681519  4 O  s          
    13     -7.023623  1 C  py                32      6.836084  1 C  dxz        
    69      6.870245  2 C  pz                90     -6.816040  2 C  dzz        
    14      6.032202  1 C  pz               115      6.022423  3 O  s          

[...]
   169     10.723736  4 O  s                123      9.752256  3 O  py         
   176     -9.644606  4 O  pz                60     -9.364240  2 C  s          
   261     -9.261029  6 Cl px               121      9.173037  3 O  pz         
   120      8.128063  3 O  py               114     -7.869239  3 O  s          

 Vector  357  Occ=0.000000D+00  E= 1.516092D+01
              MO Center= -1.8D-01, -3.3D-01, -4.8D-01, r^2= 2.6D+00
   Bfn.  Coefficient  Atom+Function         Bfn.  Coefficient  Atom+Function  
  ----- ------------  ---------------      ----- ------------  ---------------
     4     18.120687  1 C  s                178    -11.314258  4 O  py         
    50     10.136934  1 C  fxyz             175     -9.702906  4 O  py         
    69      8.012006  2 C  pz                53      7.701982  1 C  fyyz       
   114      7.477599  3 O  s                223     -6.955896  5 H  s          
    68      6.665259  2 C  py                 5      6.413122  1 C  s          

 Vector  358  Occ=0.000000D+00  E= 1.652823D+01
              MO Center=  2.2D-01,  3.6D-01, -5.8D-01, r^2= 2.0D+00
   Bfn.  Coefficient  Atom+Function         Bfn.  Coefficient  Atom+Function  
  ----- ------------  ---------------      ----- ------------  ---------------
     4     19.432558  1 C  s                114    -10.871125  3 O  s          
   112    -10.265191  3 O  s                167     -7.814414  4 O  s          
   169     -7.637403  4 O  s                115     -6.607103  3 O  s          
   170     -5.771293  4 O  s                  5      5.147549  1 C  s          
    59     -4.258651  2 C  s                 31      4.213624  1 C  dxy        

 Vector  359  Occ=0.000000D+00  E= 1.666815D+01
              MO Center= -1.7D-01, -3.3D-01, -6.2D-01, r^2= 1.8D+00
   Bfn.  Coefficient  Atom+Function         Bfn.  Coefficient  Atom+Function  
  ----- ------------  ---------------      ----- ------------  ---------------
   169     13.829020  4 O  s                114    -11.620732  3 O  s          
   167      8.775382  4 O  s                 59     -7.271128  2 C  s          
   112     -5.743015  3 O  s                179      4.589992  4 O  pz         
    13      4.206624  1 C  py                10      3.796270  1 C  py         
   178      3.736871  4 O  py               123      3.700521  3 O  py         

 Vector  360  Occ=0.000000D+00  E= 1.867627D+01
              MO Center=  4.2D-01,  7.2D-01, -3.2D-01, r^2= 2.3D+00
   Bfn.  Coefficient  Atom+Function         Bfn.  Coefficient  Atom+Function  
  ----- ------------  ---------------      ----- ------------  ---------------
     4     37.489352  1 C  s                 59    -34.306218  2 C  s          
   223     18.993586  5 H  s                 13     15.735978  1 C  py         
    31     11.067395  1 C  dxy              123     10.590957  3 O  py         
   120     10.395184  3 O  py                33      9.635947  1 C  dyy        
   140     -9.666840  3 O  dxx              143     -9.324661  3 O  dyy        

 Vector  361  Occ=0.000000D+00  E= 1.939530D+01
              MO Center= -3.8D-01, -6.9D-01, -3.5D-01, r^2= 2.5D+00
   Bfn.  Coefficient  Atom+Function         Bfn.  Coefficient  Atom+Function  
  ----- ------------  ---------------      ----- ------------  ---------------
    59     35.834106  2 C  s                  4     20.241284  1 C  s          
   222    -14.700668  5 H  s                 13    -13.418791  1 C  py         
    14    -12.073063  1 C  pz                31     10.953165  1 C  dxy        
    50    -10.588490  1 C  fxyz              53    -10.632913  1 C  fyyz       
   167    -10.285737  4 O  s                175     -9.972855  4 O  py         

 Vector  362  Occ=0.000000D+00  E= 2.787481D+01
              MO Center=  8.3D-04,  3.6D-02,  6.8D-01, r^2= 2.2D+00
   Bfn.  Coefficient  Atom+Function         Bfn.  Coefficient  Atom+Function  
  ----- ------------  ---------------      ----- ------------  ---------------
     2     22.197666  1 C  s                 57     21.612811  2 C  s          
   169    -15.044661  4 O  s                 68    -12.675758  2 C  py         
     1     10.941308  1 C  s                 56     10.625582  2 C  s          
   178     -9.356591  4 O  py                33     -8.730335  1 C  dyy        
   222     -8.645657  5 H  s                 60     -8.418853  2 C  s          

 Vector  363  Occ=0.000000D+00  E= 2.902546D+01
              MO Center=  8.2D-03,  4.9D-02,  7.2D-01, r^2= 2.1D+00
   Bfn.  Coefficient  Atom+Function         Bfn.  Coefficient  Atom+Function  
  ----- ------------  ---------------      ----- ------------  ---------------
    59     39.154853  2 C  s                 57    -22.794551  2 C  s          
     2     21.562719  1 C  s                169    -16.478252  4 O  s          
    53    -13.953807  1 C  fyyz             114    -13.084983  3 O  s          
     4    -12.954536  1 C  s                 50    -12.265658  1 C  fxyz       
   223    -11.445206  5 H  s                 56    -11.201022  2 C  s          


   alpha - beta orbital overlaps 
   ----------------------------- 


   alpha      1      2      3      4      5      6      7      8      9     10
    beta      1      2      3      4      5      6      7      8      9     10
 overlap   1.000  1.000  1.000  1.000  1.000  1.000  1.000  1.000  0.999  0.999


   alpha     11     12     13     14     15     16     17     18     19     20
    beta     11     12     13     14     15     16     17     18     19     20
 overlap   0.979  0.979  0.980  0.980  1.000  1.000  1.000  1.000  0.998  0.998


   alpha     21     22     23     24     25     26     27     28     29     30
    beta     21     23     22     24     25     26     27     28     29     30
 overlap   0.985  0.984  0.997  0.988  1.000  0.975  0.996  0.962  0.994  0.995


   alpha     31     32     33     34     35     36     37     38     39     40
    beta     31     32     33     34     35     36     37     38     39     40
 overlap   0.919  0.887  1.000  1.000  1.000  1.000  0.990  0.988  0.998  0.999


   alpha     41     42     43     44     45     46     47     48     49     50
    beta     41     42     44     43     45     46     47     48     49     50
 overlap   0.998  0.999  0.970  0.983  0.984  0.972  0.998  0.990  0.990  0.998


   alpha     51     52     53     54     55     56     57     58     59     60
    beta     51     52     53     54     55     57     56     58     59     60
 overlap   0.998  0.997  1.000  0.998  0.985  0.861  0.878  0.988  0.999  0.958


   alpha     61     62     63     64     65     66     67     68     69     70
    beta     61     62     63     64     65     66     67     68     69     70
 overlap   0.909  0.875  0.899  0.982  0.997  0.996  0.999  0.999  0.995  0.997


   alpha     71     72     73     74     75     76     77     78     79     80
    beta     71     72     73     74     75     76     77     78     79     80
 overlap   0.988  0.998  0.999  0.991  1.000  0.996  0.998  0.993  0.856  0.858


   alpha     81     82     83     84     85     86     87     88     89     90
    beta     81     82     83     84     85     86     87     88     89     90
 overlap   0.997  0.997  0.998  0.999  0.998  1.000  1.000  0.999  0.995  0.984


   alpha     91     92     93     94     95     96     97     98     99    100
    beta     91     92     93     94     95     96     97     98     99    100
 overlap   0.989  0.998  0.997  1.000  0.996  1.000  0.917  0.920  1.000  0.998


   alpha    101    102    103    104    105    106    107    108    109    110
    beta    101    102    103    104    105    106    107    108    109    110
 overlap   0.998  1.000  0.997  0.994  0.911  0.915  0.998  0.992  0.997  0.963


   alpha    111    112    113    114    115    116    117    118    119    120
    beta    111    112    113    114    115    116    117    118    119    121
 overlap   0.966  0.998  0.998  0.997  0.997  0.999  0.997  0.996  0.995  0.852


   alpha    121    122    123    124    125    126    127    128    129    130
    beta    120    122    123    124    125    126    127    128    129    130
 overlap   0.850  0.999  0.999  0.803  0.800  0.988  0.999  1.000  0.999  1.000


   alpha    131    132    133    134    135    136    137    138    139    140
    beta    131    132    133    134    135    136    137    138    139    140
 overlap   1.000  1.000  1.000  1.000  0.998  0.999  0.998  0.992  0.994  0.999


   alpha    141    142    143    144    145    146    147    148    149    150
    beta    141    142    143    144    145    146    147    148    149    150
 overlap   0.997  0.985  0.983  0.984  0.974  0.991  1.000  1.000  0.999  0.999


   alpha    151    152    153    154    155    156    157    158    159    160
    beta    151    152    153    154    155    156    157    158    159    160
 overlap   0.999  0.999  0.761  0.738  0.970  0.999  0.999  0.999  0.998  0.996


   alpha    161    162    163    164    165    166    167    168    169    170
    beta    161    162    163    164    165    166    167    168    169    170
 overlap   0.995  0.996  0.976  0.978  1.000  0.999  1.000  0.999  0.978  0.978


   alpha    171    172    173    174    175    176    177    178    179    180
    beta    171    172    173    174    175    176    177    178    179    180
 overlap   0.996  0.996  1.000  0.999  0.998  0.999  0.991  0.994  0.990  0.990


   alpha    181    182    183    184    185    186    187    188    189    190
    beta    181    182    183    184    185    186    187    188    189    190
 overlap   0.998  1.000  0.998  0.998  1.000  0.999  1.000  0.999  1.000  0.999


   alpha    191    192    193    194    195    196    197    198    199    200
    beta    191    192    193    194    195    196    197    198    199    200
 overlap   0.999  1.000  0.998  0.995  0.993  0.997  0.998  0.999  0.993  0.995


   alpha    201    202    203    204    205    206    207    208    209    210
    beta    201    202    203    204    205    206    207    208    209    210
 overlap   0.997  0.999  0.996  0.999  0.996  0.999  0.999  0.999  0.998  0.998


   alpha    211    212    213    214    215    216    217    218    219    220
    beta    211    212    213    214    215    216    217    218    219    220
 overlap   0.989  0.869  0.870  1.000  0.999  0.998  0.968  0.968  0.997  0.998


   alpha    221    222    223    224    225    226    227    228    229    230
    beta    221    222    223    224    225    226    227    228    229    230
 overlap   0.999  0.998  0.998  0.999  0.997  0.997  0.999  0.989  0.989  0.997


   alpha    231    232    233    234    235    236    237    238    239    240
    beta    231    232    233    234    235    236    237    238    239    240
 overlap   0.997  0.998  0.998  0.998  0.999  0.994  0.991  0.993  0.998  0.999


   alpha    241    242    243    244    245    246    247    248    249    250
    beta    241    242    243    244    245    246    247    248    250    249
 overlap   0.999  1.000  0.995  0.996  0.999  0.990  0.991  0.999  0.983  0.985


   alpha    251    252    253    254    255    256    257    258    259    260
    beta    251    252    253    254    255    256    257    258    259    260
 overlap   0.999  0.997  0.999  0.988  0.991  0.995  0.960  0.972  0.969  0.999


   alpha    261    262    263    264    265    266    267    268    269    270
    beta    261    262    263    264    265    266    267    268    269    270
 overlap   0.999  0.998  0.997  0.999  1.000  0.999  0.999  0.998  0.999  0.998


   alpha    271    272    273    274    275    276    277    278    279    280
    beta    271    272    273    274    275    276    277    278    279    280
 overlap   0.996  0.996  0.999  0.999  0.999  0.999  1.000  0.999  0.981  0.984


   alpha    281    282    283    284    285    286    287    288    289    290
    beta    281    282    283    284    285    286    287    288    289    290
 overlap   0.997  1.000  0.999  1.000  0.999  1.000  1.000  1.000  1.000  1.000


   alpha    291    292    293    294    295    296    297    298    299    300
    beta    291    292    293    294    295    296    297    298    299    300
 overlap   0.998  0.996  0.997  1.000  1.000  1.000  1.000  0.999  1.000  0.998


   alpha    301    302    303    304    305    306    307    308    309    310
    beta    301    302    304    303    305    306    307    308    309    310
 overlap   1.000  0.998  0.721  0.721  0.999  1.000  1.000  1.000  1.000  1.000


   alpha    311    312    313    314    315    316    317    318    319    320
    beta    311    312    313    314    315    316    317    318    319    320
 overlap   0.999  1.000  0.997  0.998  0.998  0.998  0.998  0.974  0.974  0.998


   alpha    321    322    323    324    325    326    327    328    329    330
    beta    321    322    323    324    325    326    327    328    329    330
 overlap   0.991  0.990  0.994  0.969  0.811  0.816  0.993  0.992  0.999  0.999


   alpha    331    332    333    334    335    336    337    338    339    340
    beta    331    332    333    334    335    336    337    338    339    340
 overlap   0.998  0.998  0.996  0.997  0.994  0.982  0.987  0.999  1.000  0.999


   alpha    341    342    343    344    345    346    347    348    349    350
    beta    341    342    343    344    345    346    347    348    349    350
 overlap   1.000  1.000  1.000  1.000  1.000  1.000  1.000  1.000  1.000  1.000


   alpha    351    352    353    354    355    356    357    358    359    360
    beta    351    352    353    354    355    356    357    358    359    360
 overlap   1.000  1.000  1.000  1.000  1.000  1.000  1.000  1.000  1.000  1.000


   alpha    361    362    363
    beta    361    362    363
 overlap   1.000  1.000  1.000

     --------------------------
     Expectation value of S2:  
     --------------------------
      <S2> =      0.7525 (Exact =     0.7500)


 center of mass
 --------------
 x =  -0.43588372 y =  -0.60615995 z =   2.32557117

 moments of inertia (a.u.)
 ------------------
        1005.783456415060         145.271962827791          93.748199507848
         145.271962827791        1168.859922638497         152.880684903693
          93.748199507848         152.880684903693         775.686358215198

     Multipole analysis of the density
     ---------------------------------

     L   x y z        total         alpha         beta         nuclear
     -   - - -        -----         -----         ----         -------
     0   0 0 0     -0.000000    -32.000000    -31.000000     63.000000

     1   1 0 0      0.108783     13.289453     13.228160    -26.408830
     1   0 1 0      0.236974     18.397022     18.321643    -36.481691
     1   0 0 1      0.935741    -72.304044    -72.045643    145.285428

     2   2 0 0    -34.695486   -138.956119   -136.611108    240.871741
     2   1 1 0     -1.366204     25.151574     26.052198    -52.569977
     2   1 0 1      0.270608     53.685867     53.011718   -106.426976
     2   0 2 0    -36.309642   -107.241900   -103.849993    174.782252
     2   0 1 1      0.520426     79.699095     78.812950   -157.991619
     2   0 0 2    -33.196002   -360.839960   -354.504223    682.148181


 Task  times  cpu:      153.2s     wall:      157.0s


                                NWChem Input Module
                                -------------------


 Summary of allocated global arrays
-----------------------------------
  No active global arrays


MA_summarize_allocated_blocks: starting scan ...
heap block 'gridpts', handle 115, address 0x11af2228:
	type of elements:		double precision
	number of elements:		33554432
	address of client space:	0x11af2280
	index for client space:		12480425
	total number of bytes:		268435552
MA_summarize_allocated_blocks: scan completed: 1 heap block, 0 stack blocks
MA usage statistics:

	allocation statistics:
					      heap	     stack
					      ----	     -----
	current number of blocks	         1	         0
	maximum number of blocks	        21	        53
	current total bytes		 268435552	         0
	maximum total bytes		 269199368	  44083016
	maximum total K-bytes		    269200	     44084
	maximum total M-bytes		       270	        45


                                     CITATION
                                     --------
                Please cite the following reference when publishing
                           results obtained with NWChem:

          E. Apra, E. J. Bylaska, W. A. de Jong, N. Govind, K. Kowalski,
       T. P. Straatsma, M. Valiev, H. J. J. van Dam, Y. Alexeev, J. Anchell,
       V. Anisimov, F. W. Aquino, R. Atta-Fynn, J. Autschbach, N. P. Bauman,
     J. C. Becca, D. E. Bernholdt, K. Bhaskaran-Nair, S. Bogatko, P. Borowski,
         J. Boschen, J. Brabec, A. Bruner, E. Cauet, Y. Chen, G. N. Chuev,
      C. J. Cramer, J. Daily, M. J. O. Deegan, T. H. Dunning Jr., M. Dupuis,
   K. G. Dyall, G. I. Fann, S. A. Fischer, A. Fonari, H. Fruchtl, L. Gagliardi,
      J. Garza, N. Gawande, S. Ghosh, K. Glaesemann, A. W. Gotz, J. Hammond,
       V. Helms, E. D. Hermes, K. Hirao, S. Hirata, M. Jacquelin, L. Jensen,
   B. G. Johnson, H. Jonsson, R. A. Kendall, M. Klemm, R. Kobayashi, V. Konkov,
      S. Krishnamoorthy, M. Krishnan, Z. Lin, R. D. Lins, R. J. Littlefield,
      A. J. Logsdail, K. Lopata, W. Ma, A. V. Marenich, J. Martin del Campo,
   D. Mejia-Rodriguez, J. E. Moore, J. M. Mullin, T. Nakajima, D. R. Nascimento,
    J. A. Nichols, P. J. Nichols, J. Nieplocha, A. Otero-de-la-Roza, B. Palmer,
    A. Panyala, T. Pirojsirikul, B. Peng, R. Peverati, J. Pittner, L. Pollack,
   R. M. Richard, P. Sadayappan, G. C. Schatz, W. A. Shelton, D. W. Silverstein,
   D. M. A. Smith, T. A. Soares, D. Song, M. Swart, H. L. Taylor, G. S. Thomas,
            V. Tipparaju, D. G. Truhlar, K. Tsemekhman, T. Van Voorhis,
      A. Vazquez-Mayagoitia, P. Verma, O. Villa, A. Vishnu, K. D. Vogiatzis,
        D. Wang, J. H. Weare, M. J. Williamson, T. L. Windus, K. Wolinski,
        A. T. Wong, Q. Wu, C. Yang, Q. Yu, M. Zacharias, Z. Zhang, Y. Zhao,
                                and R. J. Harrison
                        "NWChem: Past, present, and future
                         J. Chem. Phys. 152, 184102 (2020)
                               doi:10.1063/5.0004997

                                      AUTHORS
                                      -------
  E. Apra, E. J. Bylaska, N. Govind, K. Kowalski, M. Valiev, D. Mejia-Rodriguez,
       A. Kunitsa, N. P. Bauman, A. Panyala, W. A. de Jong, T. P. Straatsma,
   H. J. J. van Dam, D. Wang, T. L. Windus, J. Hammond, J. Autschbach, A. Woods,
    K. Bhaskaran-Nair, J. Brabec, K. Lopata, S. A. Fischer, S. Krishnamoorthy,
     M. Jacquelin, W. Ma, M. Klemm, O. Villa, Y. Chen, V. Anisimov, F. Aquino,
     S. Hirata, M. T. Hackler, E. Hermes, L. Jensen, J. E. Moore, J. C. Becca,
      V. Konjkov, T. Risthaus, M. Malagoli, A. Marenich, A. Otero-de-la-Roza,
        J. Mullin, P. Nichols, R. Peverati, J. Pittner, Y. Zhao, P.-D. Fan,
        A. Fonari, M. J. Williamson, R. J. Harrison, J. R. Rehr, M. Dupuis,
     D. Silverstein, D. M. A. Smith, J. Nieplocha, V. Tipparaju, M. Krishnan,
     B. E. Van Kuiken, A. Vazquez-Mayagoitia, M. Swart, Q. Wu, T. Van Voorhis,
     A. A. Auer, M. Nooijen, L. D. Crosby, E. Brown, G. Cisneros, G. I. Fann,
   H. Fruchtl, J. Garza, K. Hirao, R. A. Kendall, J. A. Nichols, K. Tsemekhman,
    K. Wolinski, J. Anchell, D. E. Bernholdt, P. Borowski, T. Clark, D. Clerc,
   H. Dachsel, M. J. O. Deegan, K. Dyall, D. Elwood, E. Glendening, M. Gutowski,
   A. C. Hess, J. Jaffe, B. G. Johnson, J. Ju, R. Kobayashi, R. Kutteh, Z. Lin,
   R. Littlefield, X. Long, B. Meng, T. Nakajima, S. Niu, L. Pollack, M. Rosing,
   K. Glaesemann, G. Sandrone, M. Stave, H. Taylor, G. Thomas, J. H. van Lenthe,
                               A. T. Wong, Z. Zhang.

 Total times  cpu:      153.3s     wall:      157.2s
