 argument  1 = 0e/mol.nwi
                                         
                                         


             Northwest Computational Chemistry Package (NWChem) 7.2.2
             --------------------------------------------------------


                    Environmental Molecular Sciences Laboratory
                       Pacific Northwest National Laboratory
                                Richland, WA 99352

                              Copyright (c) 1994-2022
                       Pacific Northwest National Laboratory
                            Battelle Memorial Institute

             NWChem is an open-source computational chemistry package
                        distributed under the terms of the
                      Educational Community License (ECL) 2.0
             A copy of the license is included with this distribution
                              in the LICENSE.TXT file

                                  ACKNOWLEDGMENT
                                  --------------

            This software and its documentation were developed at the
            EMSL at Pacific Northwest National Laboratory, a multiprogram
            national laboratory, operated for the U.S. Department of Energy
            by Battelle under Contract Number DE-AC05-76RL01830. Support
            for this work was provided by the Department of Energy Office
            of Biological and Environmental Research, Office of Basic
            Energy Sciences, and the Office of Advanced Scientific Computing.


           Job information
           ---------------

    hostname        = r310.ib.bridges2.psc.edu
    program         = nwchem
    date            = Tue Oct  1 14:17:20 2024

    compiled        = Mon_Mar_18_17:03:37_2024
    source          = /ocean/projects/pscstaff/mmadrid/nwchem-7.2.2
    nwchem branch   = 7.2.2
    nwchem revision = 74936fb9
    ga revision     = 5.8.0
    use scalapack   = F
    input           = 0e/mol.nwi
    prefix          = dft.
    data base       = .//dft.db
    status          = startup
    nproc           =       15
    time left       =     -1s



           Memory information
           ------------------

    heap     =   67108862 doubles =    512.0 Mbytes
    stack    =   67108859 doubles =    512.0 Mbytes
    global   =  134217728 doubles =   1024.0 Mbytes (distinct from heap & stack)
    total    =  268435449 doubles =   2048.0 Mbytes
    verify   = yes
    hardfail = no 


           Directory information
           ---------------------

  0 permanent = ./
  0 scratch   = /jet/home/hmt47/nwchem_scratch/




                                NWChem Input Module
                                -------------------


  library name resolved from: environment
  library file name is: </opt/packages/nwchem/nwchem7.2.2/share/nwchem/libraries/>
  


 Summary of "ao basis" -> "" (cartesian)
 ------------------------------------------------------------------------------
       Tag                 Description            Shells   Functions and Types
 ---------------- ------------------------------  ------  ---------------------
 *                        aug-cc-pVTZ                 on all atoms 


  pbe96 is a nonlocal functional; adding pw91lda local functional. 

 Scaling coordinates for geometry "geometry" by  1.889725989
 (inverse scale =  0.529177249)



                             Geometry "geometry" -> ""
                             -------------------------

 Output coordinates in angstroms (scale by  1.889725989 to convert to a.u.)

  No.       Tag          Charge          X              Y              Z
 ---- ---------------- ---------- -------------- -------------- --------------
    1 C                    6.0000    -0.00487398    -0.01628148    -0.03694303
    2 O                    8.0000    -0.09975895    -0.01189477     1.42769314
    3 O                    8.0000     0.59085117     0.99198238    -0.50139033
    4 O                    8.0000    -0.52616375    -1.01020159    -0.57155799
    5 H                    1.0000     0.35381452     0.82327546     1.63735822

      Atomic Mass 
      ----------- 

      C                 12.000000
      O                 15.994910
      H                  1.007825


 Effective nuclear repulsion energy (a.u.)     111.7812519099

            Nuclear Dipole moment (a.u.) 
            ----------------------------
        X                 Y               Z
 ---------------- ---------------- ----------------
     0.0831449199     0.9159024522     8.0382492030


            XYZ format geometry
            -------------------
     5
 geometry
 C                    -0.00487398    -0.01628148    -0.03694303
 O                    -0.09975895    -0.01189477     1.42769314
 O                     0.59085117     0.99198238    -0.50139033
 O                    -0.52616375    -1.01020159    -0.57155799
 H                     0.35381452     0.82327546     1.63735822

 ==============================================================================
                                internuclear distances
 ------------------------------------------------------------------------------
       center one      |      center two      | atomic units |  angstroms
 ------------------------------------------------------------------------------
    2 O                |   1 C                |     2.77358  |     1.46771
    3 O                |   1 C                |     2.38075  |     1.25984
    4 O                |   1 C                |     2.34922  |     1.24315
    5 H                |   2 O                |     1.83916  |     0.97324
 ------------------------------------------------------------------------------
                         number of included internuclear distances:          4
 ==============================================================================



 ==============================================================================
                                 internuclear angles
 ------------------------------------------------------------------------------
        center 1       |       center 2       |       center 3       |  degrees
 ------------------------------------------------------------------------------
    2 O                |   1 C                |   3 O                |   113.33
    2 O                |   1 C                |   4 O                |   113.86
    3 O                |   1 C                |   4 O                |   132.81
    1 C                |   2 O                |   5 H                |   100.80
 ------------------------------------------------------------------------------
                            number of included internuclear angles:          4
 ==============================================================================




                                 NWChem DFT Module
                                 -----------------


                      Basis "ao basis" -> "ao basis" (cartesian)
                      -----
  C (Carbon)
  ----------
            Exponent  Coefficients 
       -------------- ---------------------------------------------------------
  1 S  8.23600000E+03  0.000531
  1 S  1.23500000E+03  0.004108
  1 S  2.80800000E+02  0.021087
  1 S  7.92700000E+01  0.081853
  1 S  2.55900000E+01  0.234817
  1 S  8.99700000E+00  0.434401
  1 S  3.31900000E+00  0.346129
  1 S  3.64300000E-01 -0.008983

  2 S  8.23600000E+03 -0.000113
  2 S  1.23500000E+03 -0.000878
  2 S  2.80800000E+02 -0.004540
  2 S  7.92700000E+01 -0.018133
  2 S  2.55900000E+01 -0.055760
  2 S  8.99700000E+00 -0.126895
  2 S  3.31900000E+00 -0.170352
  2 S  3.64300000E-01  0.598684

  3 S  9.05900000E-01  1.000000

  4 S  1.28500000E-01  1.000000

  5 S  4.40200000E-02  1.000000

  6 P  1.87100000E+01  0.014031
  6 P  4.13300000E+00  0.086866
  6 P  1.20000000E+00  0.290216

  7 P  3.82700000E-01  1.000000

  8 P  1.20900000E-01  1.000000

  9 P  3.56900000E-02  1.000000

 10 D  1.09700000E+00  1.000000

 11 D  3.18000000E-01  1.000000

 12 D  1.00000000E-01  1.000000

 13 F  7.61000000E-01  1.000000

 14 F  2.68000000E-01  1.000000

  O (Oxygen)
  ----------
            Exponent  Coefficients 
       -------------- ---------------------------------------------------------
  1 S  1.53300000E+04  0.000508
  1 S  2.29900000E+03  0.003929
  1 S  5.22400000E+02  0.020243
  1 S  1.47300000E+02  0.079181
  1 S  4.75500000E+01  0.230687
  1 S  1.67600000E+01  0.433118
  1 S  6.20700000E+00  0.350260
  1 S  6.88200000E-01 -0.008154

  2 S  1.53300000E+04 -0.000115
  2 S  2.29900000E+03 -0.000895
  2 S  5.22400000E+02 -0.004636
  2 S  1.47300000E+02 -0.018724
  2 S  4.75500000E+01 -0.058463
  2 S  1.67600000E+01 -0.136463
  2 S  6.20700000E+00 -0.175740
  2 S  6.88200000E-01  0.603418

  3 S  1.75200000E+00  1.000000

  4 S  2.38400000E-01  1.000000

  5 S  7.37600000E-02  1.000000

  6 P  3.44600000E+01  0.015928
  6 P  7.74900000E+00  0.099740
  6 P  2.28000000E+00  0.310492

  7 P  7.15600000E-01  1.000000

  8 P  2.14000000E-01  1.000000

  9 P  5.97400000E-02  1.000000

 10 D  2.31400000E+00  1.000000

 11 D  6.45000000E-01  1.000000

 12 D  2.14000000E-01  1.000000

 13 F  1.42800000E+00  1.000000

 14 F  5.00000000E-01  1.000000

  H (Hydrogen)
  ------------
            Exponent  Coefficients 
       -------------- ---------------------------------------------------------
  1 S  3.38700000E+01  0.006068
  1 S  5.09500000E+00  0.045308
  1 S  1.15900000E+00  0.202822

  2 S  3.25800000E-01  1.000000

  3 S  1.02700000E-01  1.000000

  4 S  2.52600000E-02  1.000000

  5 P  1.40700000E+00  1.000000

  6 P  3.88000000E-01  1.000000

  7 P  1.02000000E-01  1.000000

  8 D  1.05700000E+00  1.000000

  9 D  2.47000000E-01  1.000000



 Summary of "ao basis" -> "ao basis" (cartesian)
 ------------------------------------------------------------------------------
       Tag                 Description            Shells   Functions and Types
 ---------------- ------------------------------  ------  ---------------------
 C                        aug-cc-pVTZ               14       55   5s4p3d2f
 O                        aug-cc-pVTZ               14       55   5s4p3d2f
 H                        aug-cc-pVTZ                9       25   4s3p2d




 Summary of "ao basis" -> "ao basis" (cartesian)
 ------------------------------------------------------------------------------
       Tag                 Description            Shells   Functions and Types
 ---------------- ------------------------------  ------  ---------------------
 C                        aug-cc-pVTZ               14       55   5s4p3d2f
 O                        aug-cc-pVTZ               14       55   5s4p3d2f
 H                        aug-cc-pVTZ                9       25   4s3p2d


  Caching 1-el integrals 

            General Information
            -------------------
          SCF calculation type: DFT
          Wavefunction type:  spin polarized.
          No. of atoms     :     5
          No. of electrons :    31
           Alpha electrons :    16
            Beta electrons :    15
          Charge           :     0
          Spin multiplicity:     2
          Use of symmetry is: off; symmetry adaption is: off
          Maximum number of iterations: 200
          AO basis - number of functions:   245
                     number of shells:    65
          Convergence on energy requested:  1.00D-06
          Convergence on density requested:  1.00D-05
          Convergence on gradient requested:  5.00D-04

              XC Information
              --------------
          PerdewBurkeErnzerhof Exchange Functional  1.000          
            Perdew 1991 LDA Correlation Functional  1.000 local    
           PerdewBurkeErnz. Correlation Functional  1.000 non-local

             Grid Information
             ----------------
          Grid used for XC integration:  medium    
          Radial quadrature: Mura-Knowles        
          Angular quadrature: Lebedev. 
          Tag              B.-S. Rad. Rad. Pts. Rad. Cut. Ang. Pts.
          ---              ---------- --------- --------- ---------
          C                   0.70       49          12.0       434
          O                   0.60       49          13.0       434
          H                   0.35       45          12.0       434
          Grid pruning is: on 
          Number of quadrature shells:   241
          Spatial weights used:  Erf1

          Convergence Information
          -----------------------
          Convergence aids based upon iterative change in 
          total energy or number of iterations. 
          Levelshifting, if invoked, occurs when the 
          HOMO/LUMO gap drops below (HL_TOL):  1.00D-02
          DIIS, if invoked, will attempt to extrapolate 
          using up to (NFOCK): 10 stored Fock matrices.

                    Damping(40%)  Levelshifting(0.0)       DIIS
                  --------------- ------------------- ---------------
          dE  on:    start            0.00D+00            start   
          dE off:  200 iters          0.00D+00          200 iters 


      Screening Tolerance Information
      -------------------------------
          Density screening/tol_rho:  1.00D-10
          AO Gaussian exp screening on grid/accAOfunc:  14
          CD Gaussian exp screening on grid/accCDfunc:  20
          XC Gaussian exp screening on grid/accXCfunc:  20
          Schwarz screening/accCoul:  1.00D-08


 Forcing the number of linearly dependent vectors to be  0

      Superposition of Atomic Density Guess
      -------------------------------------

 Sum of atomic energies:        -262.51426972
   Time after variat. SCF:      0.3
   Time prior to 1st pass:      0.3

 Grid_pts file          = /jet/home/hmt47/nwchem_scratch//dft.gridpts.00
 Record size in doubles =  12289        No. of grid_pts per rec  =   3070
 Max. records in memory =      4        Max. recs in file   =  67550051


           Memory utilization after 1st SCF pass: 
           Heap Space remaining (MW):       33.50            33499830
          Stack Space remaining (MW):       67.11            67106772

   convergence    iter        energy       DeltaE   RMS-Dens  Diis-err    time
 ---------------- ----- ----------------- --------- --------- ---------  ------
 d=40,ls=0.0,diis     1   -264.7132209457 -3.76D+02  4.06D-03  9.28D+00     0.7
                                                     4.06D-03  8.17D+00
 d=40,ls=0.0,diis     2   -264.3613903982  3.52D-01  2.74D-03  1.54D+00     2.3
                                                     3.09D-03  1.35D+00
 d=40,ls=0.0,diis     3   -263.9678476622  3.94D-01  1.25D-03  7.51D-01     3.9
                                                     2.14D-03  6.37D-01
 d=40,ls=0.0,diis     4   -264.1090711923 -1.41D-01  5.11D-04  1.72D-01     5.7
                                                     1.33D-03  1.51D-01
 d=40,ls=0.0,diis     5   -264.1483932614 -3.93D-02  2.63D-04  3.65D-02     7.5
                                                     5.73D-04  3.01D-02
  Resetting Diis
 d=40,ls=0.0,diis     6   -264.1610424231 -1.26D-02  1.12D-04  1.01D-02     9.2
                                                     1.99D-04  9.45D-03
 d=40,ls=0.0,diis     7   -264.1653697113 -4.33D-03  2.79D-04  4.17D-03    12.5
                                                     1.12D-03  3.89D-03
 d=40,ls=0.0,diis     8   -264.1407990446  2.46D-02  1.47D-04  5.65D-02    14.2
                                                     7.36D-04  5.47D-02
 d=40,ls=0.0,diis     9   -264.1646462396 -2.38D-02  6.30D-05  5.12D-03    15.8
                                                     1.46D-04  5.21D-03
 d=40,ls=0.0,diis    10   -264.1673323665 -2.69D-03  2.78D-05  1.34D-03    17.6
                                                     7.92D-05  1.40D-03
 d=40,ls=0.0,diis    11   -264.1683204338 -9.88D-04  1.74D-05  3.08D-04    19.3
                                                     3.87D-05  3.21D-04
 d=40,ls=0.0,diis    12   -264.1686611338 -3.41D-04  7.00D-06  5.39D-05    21.0
                                                     1.40D-05  5.78D-05
 d=40,ls=0.0,diis    13   -264.1687754517 -1.14D-04  3.28D-06  1.38D-05    22.7
                                                     9.22D-06  1.49D-05
 d=40,ls=0.0,diis    14   -264.1688201457 -4.47D-05  1.51D-06  2.13D-06    24.5
                                                     4.25D-06  2.32D-06
 d=40,ls=0.0,diis    15   -264.1688369709 -1.68D-05  5.78D-07  1.93D-07    26.0
                                                     1.39D-06  2.17D-07
 d=40,ls=0.0,diis    16   -264.1688434676 -6.50D-06  2.41D-07  1.46D-08    27.7
                                                     4.14D-07  1.76D-08
 d=40,ls=0.0,diis    17   -264.1688460447 -2.58D-06  1.14D-07  1.47D-09    29.4
                                                     1.43D-07  1.86D-09
 d=40,ls=0.0,diis    18   -264.1688470741 -1.03D-06  4.37D-08  2.52D-10    31.1
                                                     5.80D-08  3.16D-10
 d=40,ls=0.0,diis    19   -264.1688474858 -4.12D-07  1.70D-08  3.69D-11    32.8
                                                     2.22D-08  4.68D-11


         Total DFT energy =     -264.168847485788
      One electron energy =     -583.274691008611
           Coulomb energy =      238.461128315490
    Exchange-Corr. energy =      -31.136536702518
 Nuclear repulsion energy =      111.781251909851

 Numeric. integr. density =       30.999999913686

     Total iterative time =     32.6s



                    DFT Final Alpha Molecular Orbital Analysis
                    ------------------------------------------

 Vector    1  Occ=1.000000D+00  E=-1.885602D+01
              MO Center=  5.9D-01,  9.9D-01, -5.0D-01, r^2= 1.5D-02
   Bfn.  Coefficient  Atom+Function         Bfn.  Coefficient  Atom+Function  
  ----- ------------  ---------------      ----- ------------  ---------------
   111      0.980141  3 O  s                113      0.065447  3 O  s          
   114     -0.052081  3 O  s                169      0.044127  4 O  s          
    54      0.031677  1 C  fyzz              50      0.029216  1 C  fxyz       
    53      0.028310  1 C  fyyz              13     -0.025599  1 C  py         

 Vector    2  Occ=1.000000D+00  E=-1.884419D+01
              MO Center= -5.3D-01, -1.0D+00, -5.7D-01, r^2= 1.5D-02
   Bfn.  Coefficient  Atom+Function         Bfn.  Coefficient  Atom+Function  
  ----- ------------  ---------------      ----- ------------  ---------------
   166      0.981028  4 O  s                168      0.066357  4 O  s          
    50      0.037357  1 C  fxyz              53      0.033074  1 C  fyyz       
     4     -0.028381  1 C  s                 34     -0.027503  1 C  dyz        
    13      0.026598  1 C  py         

 Vector    3  Occ=1.000000D+00  E=-1.882561D+01
              MO Center= -1.0D-01, -1.2D-02,  1.4D+00, r^2= 1.5D-02
   Bfn.  Coefficient  Atom+Function         Bfn.  Coefficient  Atom+Function  
  ----- ------------  ---------------      ----- ------------  ---------------
    56      0.981381  2 O  s                 59     -0.065906  2 O  s          
    58      0.063370  2 O  s          

 Vector    4  Occ=1.000000D+00  E=-1.009609D+01
              MO Center= -4.9D-03, -1.6D-02, -3.7D-02, r^2= 2.8D-02
   Bfn.  Coefficient  Atom+Function         Bfn.  Coefficient  Atom+Function  
  ----- ------------  ---------------      ----- ------------  ---------------
     1      1.011265  1 C  s                169     -0.084472  4 O  s          
     2      0.082172  1 C  s                  3      0.065660  1 C  s          
   114     -0.051471  3 O  s                 25      0.036640  1 C  dxy        
    27      0.035214  1 C  dyy              178     -0.034782  4 O  py         
    53     -0.033056  1 C  fyyz              11     -0.032845  1 C  pz         

 Vector    5  Occ=1.000000D+00  E=-1.083555D+00
              MO Center=  4.8D-02,  6.8D-02, -1.3D-01, r^2= 1.3D+00
   Bfn.  Coefficient  Atom+Function         Bfn.  Coefficient  Atom+Function  
  ----- ------------  ---------------      ----- ------------  ---------------
   112      0.279668  3 O  s                  2      0.270761  1 C  s          
   167      0.250400  4 O  s                 57      0.166283  2 O  s          
   114      0.135963  3 O  s                169      0.094071  4 O  s          
    59      0.079947  2 O  s                  3      0.078596  1 C  s          
   113      0.078936  3 O  s                  4      0.071602  1 C  s          

 Vector    6  Occ=1.000000D+00  E=-9.995935D-01
              MO Center= -4.8D-02, -1.3D-01, -3.7D-01, r^2= 1.3D+00
   Bfn.  Coefficient  Atom+Function         Bfn.  Coefficient  Atom+Function  
  ----- ------------  ---------------      ----- ------------  ---------------
   167      0.363900  4 O  s                112     -0.307836  3 O  s          
   169      0.282806  4 O  s                114     -0.266107  3 O  s          
     7     -0.143334  1 C  py               168      0.100889  4 O  s          
   113     -0.084850  3 O  s                  6     -0.078969  1 C  px         
   172      0.058241  4 O  py               175      0.055302  4 O  py         

 Vector    7  Occ=1.000000D+00  E=-9.653966D-01
              MO Center=  4.5D-02,  1.9D-01,  9.7D-01, r^2= 1.2D+00
   Bfn.  Coefficient  Atom+Function         Bfn.  Coefficient  Atom+Function  
  ----- ------------  ---------------      ----- ------------  ---------------
    57      0.433300  2 O  s                 59      0.270719  2 O  s          
   112     -0.192666  3 O  s                 58      0.121110  2 O  s          
   114     -0.103758  3 O  s                  8      0.096890  1 C  pz         
   167     -0.093945  4 O  s                221      0.091127  5 H  s          
   222      0.085272  5 H  s                 11      0.068688  1 C  pz         

 Vector    8  Occ=1.000000D+00  E=-5.698214D-01
              MO Center= -3.9D-02, -1.9D-03,  6.0D-01, r^2= 2.0D+00
   Bfn.  Coefficient  Atom+Function         Bfn.  Coefficient  Atom+Function  
  ----- ------------  ---------------      ----- ------------  ---------------
     2      0.258188  1 C  s                 63     -0.191462  2 O  pz         
    66     -0.184405  2 O  pz               167     -0.174723  4 O  s          
   222     -0.148299  5 H  s                  4      0.140477  1 C  s          
   169     -0.141118  4 O  s                112     -0.122693  3 O  s          
    62     -0.117955  2 O  py               114     -0.115108  3 O  s          

 Vector    9  Occ=1.000000D+00  E=-5.126459D-01
              MO Center=  2.1D-01,  3.5D-01, -1.8D-01, r^2= 2.1D+00
   Bfn.  Coefficient  Atom+Function         Bfn.  Coefficient  Atom+Function  
  ----- ------------  ---------------      ----- ------------  ---------------
   114      0.205367  3 O  s                112      0.202969  3 O  s          
   117      0.198209  3 O  py               120      0.187192  3 O  py         
     2     -0.154656  1 C  s                  8      0.155249  1 C  pz         
   172     -0.123273  4 O  py               175     -0.120702  4 O  py         
   116      0.111314  3 O  px               123      0.105844  3 O  py         

 Vector   10  Occ=1.000000D+00  E=-4.792709D-01
              MO Center= -6.1D-02, -1.4D-01, -2.1D-01, r^2= 2.3D+00
   Bfn.  Coefficient  Atom+Function         Bfn.  Coefficient  Atom+Function  
  ----- ------------  ---------------      ----- ------------  ---------------
   118      0.183622  3 O  pz               121      0.182271  3 O  pz         
   172     -0.176694  4 O  py               167      0.168098  4 O  s          
   175     -0.165239  4 O  py                 7      0.152104  1 C  py         
    59     -0.142694  2 O  s                169      0.120787  4 O  s          
   178     -0.120612  4 O  py               124      0.115929  3 O  pz         

 Vector   11  Occ=1.000000D+00  E=-4.633642D-01
              MO Center=  2.4D-02,  2.2D-02, -1.5D-01, r^2= 1.6D+00
   Bfn.  Coefficient  Atom+Function         Bfn.  Coefficient  Atom+Function  
  ----- ------------  ---------------      ----- ------------  ---------------
     6      0.203928  1 C  px                 9      0.171063  1 C  px         
   116      0.168037  3 O  px               119      0.166022  3 O  px         
   171      0.158502  4 O  px               174      0.155889  4 O  px         
     7     -0.114200  1 C  py               122      0.097808  3 O  px         
    10     -0.095803  1 C  py                61      0.093764  2 O  px         

 Vector   12  Occ=1.000000D+00  E=-4.274964D-01
              MO Center= -2.9D-02,  6.6D-03,  5.3D-01, r^2= 2.3D+00
   Bfn.  Coefficient  Atom+Function         Bfn.  Coefficient  Atom+Function  
  ----- ------------  ---------------      ----- ------------  ---------------
    59      0.238272  2 O  s                 62     -0.193258  2 O  py         
    65     -0.179275  2 O  py                57      0.171358  2 O  s          
   222     -0.144545  5 H  s                117     -0.143254  3 O  py         
   120     -0.142500  3 O  py                60      0.128739  2 O  s          
   175     -0.125048  4 O  py               172     -0.123976  4 O  py         

 Vector   13  Occ=1.000000D+00  E=-3.422506D-01
              MO Center= -3.6D-01, -6.9D-01, -3.2D-01, r^2= 1.5D+00
   Bfn.  Coefficient  Atom+Function         Bfn.  Coefficient  Atom+Function  
  ----- ------------  ---------------      ----- ------------  ---------------
   176      0.343028  4 O  pz               173      0.337239  4 O  pz         
   179      0.212372  4 O  pz                66      0.140818  2 O  pz         
    63      0.139531  2 O  pz               175     -0.114289  4 O  py         
   120     -0.108702  3 O  py               172     -0.106728  4 O  py         
   117     -0.104011  3 O  py               174     -0.086873  4 O  px         

 Vector   14  Occ=1.000000D+00  E=-3.375840D-01
              MO Center=  2.7D-01,  5.1D-01,  1.8D-01, r^2= 2.1D+00
   Bfn.  Coefficient  Atom+Function         Bfn.  Coefficient  Atom+Function  
  ----- ------------  ---------------      ----- ------------  ---------------
   121      0.321798  3 O  pz               118      0.316091  3 O  pz         
   124      0.209555  3 O  pz                63      0.174409  2 O  pz         
    66      0.174371  2 O  pz                62     -0.128033  2 O  py         
    65     -0.124970  2 O  py                59      0.119916  2 O  s          
    60      0.115442  2 O  s                175      0.085228  4 O  py         

 Vector   15  Occ=1.000000D+00  E=-3.328985D-01
              MO Center=  4.8D-02,  2.2D-02, -5.0D-01, r^2= 1.9D+00
   Bfn.  Coefficient  Atom+Function         Bfn.  Coefficient  Atom+Function  
  ----- ------------  ---------------      ----- ------------  ---------------
   119      0.253547  3 O  px               116      0.250066  3 O  px         
   174     -0.244094  4 O  px               171     -0.240739  4 O  px         
   122      0.159482  3 O  px               177     -0.147060  4 O  px         
   120     -0.142042  3 O  py               117     -0.140091  3 O  py         
   175      0.136749  4 O  py               172      0.134868  4 O  py         

 Vector   16  Occ=1.000000D+00  E=-3.165957D-01
              MO Center= -8.4D-02, -2.5D-02,  1.1D+00, r^2= 1.4D+00
   Bfn.  Coefficient  Atom+Function         Bfn.  Coefficient  Atom+Function  
  ----- ------------  ---------------      ----- ------------  ---------------
    64      0.311244  2 O  px                61      0.308685  2 O  px         
    67      0.212947  2 O  px                65     -0.174218  2 O  py         
    62     -0.172786  2 O  py                68     -0.119178  2 O  py         
   174     -0.115449  4 O  px               171     -0.113964  4 O  px         
   119     -0.091428  3 O  px               116     -0.090188  3 O  px         

 Vector   17  Occ=0.000000D+00  E=-5.089978D-02
              MO Center= -6.9D-03, -2.6D-02, -8.7D-02, r^2= 1.7D+00
   Bfn.  Coefficient  Atom+Function         Bfn.  Coefficient  Atom+Function  
  ----- ------------  ---------------      ----- ------------  ---------------
    12      0.412396  1 C  px                 9      0.344190  1 C  px         
     6      0.318214  1 C  px                13     -0.231063  1 C  py         
   122     -0.213234  3 O  px               177     -0.205709  4 O  px         
    10     -0.192792  1 C  py               174     -0.183432  4 O  px         
     7     -0.178275  1 C  py               119     -0.172554  3 O  px         

 Vector   18  Occ=0.000000D+00  E=-3.643598D-02
              MO Center=  4.4D-01,  9.6D-01,  1.4D+00, r^2= 7.6D+00
   Bfn.  Coefficient  Atom+Function         Bfn.  Coefficient  Atom+Function  
  ----- ------------  ---------------      ----- ------------  ---------------
   224      0.911375  5 H  s                170     -0.294477  4 O  s          
    59     -0.289682  2 O  s                 17     -0.236463  1 C  pz         
    60      0.234131  2 O  s                223      0.188919  5 H  s          
   114     -0.162865  3 O  s                 14     -0.145292  1 C  pz         
    57     -0.143105  2 O  s                 72     -0.123833  2 O  pz         

 Vector   19  Occ=0.000000D+00  E= 1.492128D-02
              MO Center=  2.0D-02, -7.5D-03, -3.4D-01, r^2= 1.2D+01
   Bfn.  Coefficient  Atom+Function         Bfn.  Coefficient  Atom+Function  
  ----- ------------  ---------------      ----- ------------  ---------------
     5      4.022684  1 C  s                170     -3.257219  4 O  s          
     4      2.450017  1 C  s                115     -2.216022  3 O  s          
    60     -0.930606  2 O  s                224     -0.732421  5 H  s          
    33      0.719768  1 C  dyy               17     -0.585476  1 C  pz         
   181     -0.504748  4 O  py                14     -0.482042  1 C  pz         

 Vector   20  Occ=0.000000D+00  E= 3.256244D-02
              MO Center=  9.0D-02,  1.7D-01,  8.5D-02, r^2= 1.2D+01
   Bfn.  Coefficient  Atom+Function         Bfn.  Coefficient  Atom+Function  
  ----- ------------  ---------------      ----- ------------  ---------------
    15      1.498409  1 C  px                16     -0.835944  1 C  py         
   180     -0.410131  4 O  px               125     -0.255647  3 O  px         
   181      0.229485  4 O  py                70     -0.227629  2 O  px         
   231      0.160005  5 H  px               126      0.143889  3 O  py         
    71      0.126916  2 O  py                17      0.098147  1 C  pz         

 Vector   21  Occ=0.000000D+00  E= 3.276468D-02
              MO Center=  9.5D-02,  2.0D-01,  3.1D-01, r^2= 1.5D+01
   Bfn.  Coefficient  Atom+Function         Bfn.  Coefficient  Atom+Function  
  ----- ------------  ---------------      ----- ------------  ---------------
   115      1.908112  3 O  s                 16     -1.549965  1 C  py         
    17      0.975787  1 C  pz                60     -0.947324  2 O  s          
    15     -0.929975  1 C  px               170     -0.895862  4 O  s          
    13     -0.608453  1 C  py                14      0.387156  1 C  pz         
    12     -0.366716  1 C  px                72      0.360951  2 O  pz         

 Vector   22  Occ=0.000000D+00  E= 5.524489D-02
              MO Center=  5.3D-01,  1.2D+00,  1.7D+00, r^2= 1.8D+01
   Bfn.  Coefficient  Atom+Function         Bfn.  Coefficient  Atom+Function  
  ----- ------------  ---------------      ----- ------------  ---------------
     5      6.970533  1 C  s                224     -3.626912  5 H  s          
    60     -2.438975  2 O  s                 17      2.357105  1 C  pz         
     4      2.153909  1 C  s                115     -2.013041  3 O  s          
    16      0.979360  1 C  py                72      0.925851  2 O  pz         
    14      0.620762  1 C  pz                34     -0.539427  1 C  dyz        

 Vector   23  Occ=0.000000D+00  E= 6.547657D-02
              MO Center= -1.6D-01, -2.4D-01,  3.5D-01, r^2= 1.1D+01
   Bfn.  Coefficient  Atom+Function         Bfn.  Coefficient  Atom+Function  
  ----- ------------  ---------------      ----- ------------  ---------------
    60      4.359344  2 O  s                223     -3.335584  5 H  s          
    17     -1.537424  1 C  pz                 5     -1.477793  1 C  s          
   170     -1.268076  4 O  s                 16     -1.123205  1 C  py         
   232      1.104612  5 H  py               115      1.098468  3 O  s          
    71      0.883225  2 O  py                59      0.725103  2 O  s          

 Vector   24  Occ=0.000000D+00  E= 7.573483D-02
              MO Center= -4.2D-02, -7.4D-03,  5.9D-01, r^2= 1.0D+01
   Bfn.  Coefficient  Atom+Function         Bfn.  Coefficient  Atom+Function  
  ----- ------------  ---------------      ----- ------------  ---------------
    60      4.551329  2 O  s                223     -3.421464  5 H  s          
     5     -3.151801  1 C  s                170      2.022155  4 O  s          
     4     -1.429829  1 C  s                115      1.404868  3 O  s          
    17     -1.262295  1 C  pz                71      1.229922  2 O  py         
    72      0.744911  2 O  pz               181      0.705024  4 O  py         

 Vector   25  Occ=0.000000D+00  E= 9.644507D-02
              MO Center=  4.2D-01,  8.1D-01,  5.9D-01, r^2= 1.3D+01
   Bfn.  Coefficient  Atom+Function         Bfn.  Coefficient  Atom+Function  
  ----- ------------  ---------------      ----- ------------  ---------------
     4      7.047965  1 C  s                115     -5.486246  3 O  s          
    60     -4.903187  2 O  s                170     -4.049999  4 O  s          
    35      3.196179  1 C  dzz               33      2.913426  1 C  dyy        
    72      2.546148  2 O  pz                30      2.514913  1 C  dxx        
     5      2.396334  1 C  s                223      2.096488  5 H  s          

 Vector   26  Occ=0.000000D+00  E= 1.082140D-01
              MO Center= -1.8D-01, -3.5D-01, -1.9D-01, r^2= 1.1D+01
   Bfn.  Coefficient  Atom+Function         Bfn.  Coefficient  Atom+Function  
  ----- ------------  ---------------      ----- ------------  ---------------
   180      1.306758  4 O  px               125     -1.059319  3 O  px         
   181     -0.729062  4 O  py                31      0.602582  1 C  dxy        
   126      0.590981  3 O  py                33     -0.487218  1 C  dyy        
    30      0.465434  1 C  dxx              231     -0.434320  5 H  px         
    70     -0.394458  2 O  px                67      0.304916  2 O  px         

 Vector   27  Occ=0.000000D+00  E= 1.100992D-01
              MO Center=  1.4D-01,  3.6D-01,  8.8D-01, r^2= 1.1D+01
   Bfn.  Coefficient  Atom+Function         Bfn.  Coefficient  Atom+Function  
  ----- ------------  ---------------      ----- ------------  ---------------
    70      1.676176  2 O  px               125     -1.056612  3 O  px         
    71     -0.938325  2 O  py               126      0.596953  3 O  py         
    32     -0.474693  1 C  dxz               31      0.356598  1 C  dxy        
    30      0.346593  1 C  dxx               15     -0.321754  1 C  px         
    34      0.312516  1 C  dyz               33     -0.302124  1 C  dyy        

 Vector   28  Occ=0.000000D+00  E= 1.102687D-01
              MO Center= -1.4D-01, -3.0D-01, -4.3D-01, r^2= 9.4D+00
   Bfn.  Coefficient  Atom+Function         Bfn.  Coefficient  Atom+Function  
  ----- ------------  ---------------      ----- ------------  ---------------
     5      2.706009  1 C  s                170      1.751047  4 O  s          
    35     -1.660637  1 C  dzz                4     -1.624384  1 C  s          
    30     -1.448772  1 C  dxx              181      1.361769  4 O  py         
   223      1.266773  5 H  s                 33     -1.223341  1 C  dyy        
   126     -0.948911  3 O  py               182      0.801401  4 O  pz         

 Vector   29  Occ=0.000000D+00  E= 1.510840D-01
              MO Center= -1.3D-01, -1.6D-01,  7.0D-01, r^2= 1.4D+01
   Bfn.  Coefficient  Atom+Function         Bfn.  Coefficient  Atom+Function  
  ----- ------------  ---------------      ----- ------------  ---------------
     5     11.210793  1 C  s                  4      9.494806  1 C  s          
   115     -9.076408  3 O  s                170     -8.003833  4 O  s          
    60     -6.728317  2 O  s                 33      3.483342  1 C  dyy        
   182     -3.072181  4 O  pz               224     -2.797750  5 H  s          
    17      2.532262  1 C  pz                72      2.437832  2 O  pz         

 Vector   30  Occ=0.000000D+00  E= 1.560528D-01
              MO Center= -9.7D-03,  5.4D-03,  2.2D-01, r^2= 1.4D+01
   Bfn.  Coefficient  Atom+Function         Bfn.  Coefficient  Atom+Function  
  ----- ------------  ---------------      ----- ------------  ---------------
   223      8.594075  5 H  s                170      7.006105  4 O  s          
    60     -6.300823  2 O  s                  4     -6.066309  1 C  s          
   115      5.004428  3 O  s                  5     -4.186040  1 C  s          
    71     -3.078998  2 O  py               127      2.924703  3 O  pz         
    34     -2.681622  1 C  dyz               33     -2.430401  1 C  dyy        

 Vector   31  Occ=0.000000D+00  E= 1.721776D-01
              MO Center= -3.8D-02, -8.7D-02, -1.3D-01, r^2= 1.4D+01
   Bfn.  Coefficient  Atom+Function         Bfn.  Coefficient  Atom+Function  
  ----- ------------  ---------------      ----- ------------  ---------------
    15      3.144884  1 C  px               180     -2.121420  4 O  px         
    16     -1.751505  1 C  py               125     -1.709555  3 O  px         
    70     -1.190218  2 O  px               181      1.179802  4 O  py         
    12      1.123985  1 C  px               126      0.949562  3 O  py         
    71      0.658787  2 O  py                13     -0.637058  1 C  py         

 Vector   32  Occ=0.000000D+00  E= 1.726912D-01
              MO Center= -1.0D-01, -2.2D-01, -2.4D-01, r^2= 1.5D+01
   Bfn.  Coefficient  Atom+Function         Bfn.  Coefficient  Atom+Function  
  ----- ------------  ---------------      ----- ------------  ---------------
   170     -4.801268  4 O  s                 16      4.772207  1 C  py         
   181     -4.062090  4 O  py               126     -3.811911  3 O  py         
   115      3.639137  3 O  s                 13     -3.477215  1 C  py         
    71     -3.338284  2 O  py                60     -3.043347  2 O  s          
    15      2.669455  1 C  px               223      2.636094  5 H  s          

 Vector   33  Occ=0.000000D+00  E= 1.753981D-01
              MO Center=  9.2D-02,  4.1D-02, -1.0D+00, r^2= 1.0D+01
   Bfn.  Coefficient  Atom+Function         Bfn.  Coefficient  Atom+Function  
  ----- ------------  ---------------      ----- ------------  ---------------
     5      3.337543  1 C  s                170     -3.076553  4 O  s          
    17     -3.018995  1 C  pz               115     -2.749496  3 O  s          
   127      1.893372  3 O  pz               223      1.325900  5 H  s          
   182      1.214735  4 O  pz                71     -0.980525  2 O  py         
    50     -0.952716  1 C  fxyz              59     -0.860588  2 O  s          

 Vector   34  Occ=0.000000D+00  E= 1.835644D-01
              MO Center= -1.1D-01, -1.5D-01,  5.1D-01, r^2= 1.3D+01
   Bfn.  Coefficient  Atom+Function         Bfn.  Coefficient  Atom+Function  
  ----- ------------  ---------------      ----- ------------  ---------------
    72      4.358850  2 O  pz               170      3.920161  4 O  s          
   182      3.720291  4 O  pz                17     -3.693342  1 C  pz         
   223     -3.491524  5 H  s                  4     -3.393365  1 C  s          
    60     -3.385030  2 O  s                127      2.922264  3 O  pz         
    14      2.516214  1 C  pz               115      2.236853  3 O  s          

 Vector   35  Occ=0.000000D+00  E= 2.052843D-01
              MO Center= -9.0D-02, -1.7D-01, -3.6D-02, r^2= 1.2D+01
   Bfn.  Coefficient  Atom+Function         Bfn.  Coefficient  Atom+Function  
  ----- ------------  ---------------      ----- ------------  ---------------
   115      9.261103  3 O  s                170     -7.851984  4 O  s          
    13     -4.380066  1 C  py                12     -2.484967  1 C  px         
    34      2.281825  1 C  dyz              126     -2.165468  3 O  py         
    60     -1.992479  2 O  s                181     -1.654808  4 O  py         
   114     -1.637666  3 O  s                 10      1.575270  1 C  py         

 Vector   36  Occ=0.000000D+00  E= 2.062723D-01
              MO Center=  1.5D-01,  3.7D-01,  9.2D-01, r^2= 8.9D+00
   Bfn.  Coefficient  Atom+Function         Bfn.  Coefficient  Atom+Function  
  ----- ------------  ---------------      ----- ------------  ---------------
   231      2.034978  5 H  px                70     -1.783478  2 O  px         
   125     -1.238424  3 O  px               232     -1.139562  5 H  py         
    71      0.996657  2 O  py                67     -0.929256  2 O  px         
    15      0.899517  1 C  px               126      0.682016  3 O  py         
    31      0.571303  1 C  dxy              180      0.527582  4 O  px         

 Vector   37  Occ=0.000000D+00  E= 2.270991D-01
              MO Center= -3.7D-02, -4.0D-02,  2.5D-01, r^2= 1.2D+01
   Bfn.  Coefficient  Atom+Function         Bfn.  Coefficient  Atom+Function  
  ----- ------------  ---------------      ----- ------------  ---------------
    60     13.033946  2 O  s                  5     -8.492853  1 C  s          
   223     -4.627608  5 H  s                170     -4.027989  4 O  s          
    14     -3.288542  1 C  pz                33      2.594641  1 C  dyy        
    17     -2.527769  1 C  pz                30      2.242262  1 C  dxx        
   115     -2.036690  3 O  s                224      1.871874  5 H  s          

 Vector   38  Occ=0.000000D+00  E= 2.537571D-01
              MO Center=  1.9D-01,  4.5D-01,  8.6D-01, r^2= 1.1D+01
   Bfn.  Coefficient  Atom+Function         Bfn.  Coefficient  Atom+Function  
  ----- ------------  ---------------      ----- ------------  ---------------
    60     17.747870  2 O  s                223    -12.259764  5 H  s          
   115     10.745056  3 O  s                170      9.780699  4 O  s          
     4     -6.627851  1 C  s                 33     -6.310311  1 C  dyy        
    30     -5.884400  1 C  dxx                5     -4.624290  1 C  s          
    35     -4.034056  1 C  dzz               71      2.975395  2 O  py         

 Vector   39  Occ=0.000000D+00  E= 2.599640D-01
              MO Center=  1.3D-02,  8.1D-04, -1.6D-01, r^2= 6.5D+00
   Bfn.  Coefficient  Atom+Function         Bfn.  Coefficient  Atom+Function  
  ----- ------------  ---------------      ----- ------------  ---------------
    32      3.178316  1 C  dxz               34     -1.787491  1 C  dyz        
    70     -0.968400  2 O  px                67     -0.923463  2 O  px         
   122      0.644973  3 O  px               177      0.638284  4 O  px         
   125      0.564576  3 O  px                71      0.544381  2 O  py         
    68      0.518579  2 O  py                87      0.520382  2 O  dxz        

 Vector   40  Occ=0.000000D+00  E= 2.817684D-01
              MO Center=  5.6D-03,  3.4D-02,  2.3D-01, r^2= 6.8D+00
   Bfn.  Coefficient  Atom+Function         Bfn.  Coefficient  Atom+Function  
  ----- ------------  ---------------      ----- ------------  ---------------
     4      7.578111  1 C  s                  5      7.032725  1 C  s          
   170     -6.754807  4 O  s                115     -3.160970  3 O  s          
   169     -2.071325  4 O  s                 72     -1.775900  2 O  pz         
    71     -1.705845  2 O  py                31      1.637959  1 C  dxy        
   182     -1.625756  4 O  pz               233      1.500262  5 H  pz         

 Vector   41  Occ=0.000000D+00  E= 2.992781D-01
              MO Center= -2.8D-02,  5.4D-02,  9.2D-01, r^2= 1.1D+01
   Bfn.  Coefficient  Atom+Function         Bfn.  Coefficient  Atom+Function  
  ----- ------------  ---------------      ----- ------------  ---------------
   170     11.647713  4 O  s                223      7.353916  5 H  s          
     4     -5.879946  1 C  s                233     -5.076133  5 H  pz         
    35     -4.483806  1 C  dzz               33     -4.388082  1 C  dyy        
    30     -3.706916  1 C  dxx               60     -3.657405  2 O  s          
     5      3.081771  1 C  s                 59     -2.769826  2 O  s          

 Vector   42  Occ=0.000000D+00  E= 3.093823D-01
              MO Center=  6.1D-01,  1.2D+00,  1.2D+00, r^2= 9.1D+00
   Bfn.  Coefficient  Atom+Function         Bfn.  Coefficient  Atom+Function  
  ----- ------------  ---------------      ----- ------------  ---------------
   115      8.689875  3 O  s                 59     -3.988820  2 O  s          
     5     -3.612863  1 C  s                232     -3.292609  5 H  py         
    72     -3.040669  2 O  pz                30     -2.741071  1 C  dxx        
   170      2.484941  4 O  s                127      2.453846  3 O  pz         
     4     -2.347559  1 C  s                 35     -2.223140  1 C  dzz        

 Vector   43  Occ=0.000000D+00  E= 3.213803D-01
              MO Center=  2.7D-01,  4.8D-01,  4.3D-02, r^2= 6.8D+00
   Bfn.  Coefficient  Atom+Function         Bfn.  Coefficient  Atom+Function  
  ----- ------------  ---------------      ----- ------------  ---------------
    12      3.913024  1 C  px                13     -2.192377  1 C  py         
   125     -1.447629  3 O  px                31      1.313749  1 C  dxy        
   122     -1.085958  3 O  px                33     -1.073893  1 C  dyy        
    30      1.064788  1 C  dxx               49     -0.920577  1 C  fxyy       
    46     -0.910041  1 C  fxxx              51     -0.913492  1 C  fxzz       

 Vector   44  Occ=0.000000D+00  E= 3.341875D-01
              MO Center=  2.0D-01,  2.2D-01, -1.1D+00, r^2= 8.8D+00
   Bfn.  Coefficient  Atom+Function         Bfn.  Coefficient  Atom+Function  
  ----- ------------  ---------------      ----- ------------  ---------------
     4     14.542134  1 C  s                115    -11.327916  3 O  s          
   170     -9.438846  4 O  s                 60     -9.261195  2 O  s          
    35      8.560512  1 C  dzz                5      5.602279  1 C  s          
    33      3.800235  1 C  dyy               30      3.388603  1 C  dxx        
    59     -3.275209  2 O  s                126      2.794192  3 O  py         

 Vector   45  Occ=0.000000D+00  E= 3.606476D-01
              MO Center= -2.1D-01, -3.4D-01,  3.9D-01, r^2= 8.3D+00
   Bfn.  Coefficient  Atom+Function         Bfn.  Coefficient  Atom+Function  
  ----- ------------  ---------------      ----- ------------  ---------------
    31     -2.667490  1 C  dxy               12      2.461862  1 C  px         
    33      2.170704  1 C  dyy               30     -2.143044  1 C  dxx        
   180     -1.843253  4 O  px               231      1.713641  5 H  px         
    70     -1.673608  2 O  px               177     -1.660431  4 O  px         
    13     -1.378399  1 C  py               181      1.031225  4 O  py         

 Vector   46  Occ=0.000000D+00  E= 3.840315D-01
              MO Center= -3.0D-01, -4.1D-01,  1.0D+00, r^2= 8.2D+00
   Bfn.  Coefficient  Atom+Function         Bfn.  Coefficient  Atom+Function  
  ----- ------------  ---------------      ----- ------------  ---------------
     4     17.220486  1 C  s                170    -11.296231  4 O  s          
   223    -10.469224  5 H  s                115     -9.447977  3 O  s          
     5      8.280917  1 C  s                 33      6.563535  1 C  dyy        
    31      5.502029  1 C  dxy               30      3.376056  1 C  dxx        
    35      3.372176  1 C  dzz               71      3.058058  2 O  py         

 Vector   47  Occ=0.000000D+00  E= 3.928487D-01
              MO Center=  1.4D-02,  5.3D-02,  2.7D-01, r^2= 4.9D+00
   Bfn.  Coefficient  Atom+Function         Bfn.  Coefficient  Atom+Function  
  ----- ------------  ---------------      ----- ------------  ---------------
     4     11.989961  1 C  s                115    -10.582421  3 O  s          
     5      6.617624  1 C  s                170     -5.822555  4 O  s          
    33      5.250052  1 C  dyy               60     -4.472201  2 O  s          
    31      4.162446  1 C  dxy              169     -3.589045  4 O  s          
   223     -2.878618  5 H  s                 30      2.786912  1 C  dxx        

 Vector   48  Occ=0.000000D+00  E= 4.190669D-01
              MO Center=  1.4D-01,  2.9D-01,  4.6D-01, r^2= 8.3D+00
   Bfn.  Coefficient  Atom+Function         Bfn.  Coefficient  Atom+Function  
  ----- ------------  ---------------      ----- ------------  ---------------
     4     20.701227  1 C  s                115     -9.654716  3 O  s          
    60     -7.446176  2 O  s                 33      7.342968  1 C  dyy        
    31      7.218011  1 C  dxy              170     -6.264774  4 O  s          
    13      6.100557  1 C  py                 5      4.652290  1 C  s          
   124     -3.378065  3 O  pz               114     -3.273140  3 O  s          

 Vector   49  Occ=0.000000D+00  E= 4.519256D-01
              MO Center=  1.9D-02,  6.9D-02,  3.3D-01, r^2= 9.5D+00
   Bfn.  Coefficient  Atom+Function         Bfn.  Coefficient  Atom+Function  
  ----- ------------  ---------------      ----- ------------  ---------------
   223    -23.530593  5 H  s                 60     22.001119  2 O  s          
    34     11.474088  1 C  dyz              170     -9.742361  4 O  s          
    14     -7.102264  1 C  pz                 4      6.416038  1 C  s          
    32      6.427810  1 C  dxz               31      4.541972  1 C  dxy        
   169     -4.559341  4 O  s                233      4.509205  5 H  pz         

 Vector   50  Occ=0.000000D+00  E= 4.595877D-01
              MO Center=  5.9D-03, -6.1D-03, -1.1D-01, r^2= 8.3D+00
   Bfn.  Coefficient  Atom+Function         Bfn.  Coefficient  Atom+Function  
  ----- ------------  ---------------      ----- ------------  ---------------
    13     13.885899  1 C  py               170     13.222578  4 O  s          
     4     -9.103428  1 C  s                 34     -8.128225  1 C  dyz        
    12      7.891470  1 C  px               115     -7.583264  3 O  s          
    60      6.652912  2 O  s                223     -5.257367  5 H  s          
   169      4.468582  4 O  s                 32     -4.334467  1 C  dxz        

 Vector   51  Occ=0.000000D+00  E= 4.733953D-01
              MO Center=  3.9D-02,  1.1D-01,  3.6D-01, r^2= 9.0D+00
   Bfn.  Coefficient  Atom+Function         Bfn.  Coefficient  Atom+Function  
  ----- ------------  ---------------      ----- ------------  ---------------
   223     20.910042  5 H  s                 14    -13.816669  1 C  pz         
   115     -7.345691  3 O  s                 34     -6.832308  1 C  dyz        
    35     -5.880270  1 C  dzz              233     -4.886554  5 H  pz         
     4      4.142883  1 C  s                 31      3.993214  1 C  dxy        
   222     -3.479838  5 H  s                232     -3.356607  5 H  py         

 Vector   52  Occ=0.000000D+00  E= 5.316086D-01
              MO Center= -2.7D-01, -4.7D-01,  1.1D-01, r^2= 6.9D+00
   Bfn.  Coefficient  Atom+Function         Bfn.  Coefficient  Atom+Function  
  ----- ------------  ---------------      ----- ------------  ---------------
    70      1.236290  2 O  px                32     -1.198563  1 C  dxz        
   180     -1.142396  4 O  px                31     -1.111652  1 C  dxy        
   142      0.988858  3 O  dxz              197     -0.903833  4 O  dxz        
    33      0.873554  1 C  dyy               30     -0.795496  1 C  dxx        
   196     -0.703012  4 O  dxy               71     -0.692387  2 O  py         

 Vector   53  Occ=0.000000D+00  E= 5.499541D-01
              MO Center=  2.9D-01,  6.0D-01,  7.3D-01, r^2= 6.2D+00
   Bfn.  Coefficient  Atom+Function         Bfn.  Coefficient  Atom+Function  
  ----- ------------  ---------------      ----- ------------  ---------------
    32      1.554319  1 C  dxz              125      1.393402  3 O  px         
    87      1.324320  2 O  dxz              231     -1.321281  5 H  px         
    67      1.260585  2 O  px                34     -0.953903  1 C  dyz        
   197     -0.866500  4 O  dxz               86      0.845065  2 O  dxy        
   126     -0.779361  3 O  py               232      0.738795  5 H  py         

 Vector   54  Occ=0.000000D+00  E= 5.583768D-01
              MO Center=  2.6D-01,  5.2D-01,  4.8D-01, r^2= 6.2D+00
   Bfn.  Coefficient  Atom+Function         Bfn.  Coefficient  Atom+Function  
  ----- ------------  ---------------      ----- ------------  ---------------
    60     11.227505  2 O  s                170      8.093755  4 O  s          
   223     -7.051895  5 H  s                115      4.189164  3 O  s          
    33     -4.132649  1 C  dyy               14     -3.701431  1 C  pz         
    30     -3.590784  1 C  dxx               13      3.018938  1 C  py         
    35     -2.961414  1 C  dzz                5     -2.701364  1 C  s          

 Vector   55  Occ=0.000000D+00  E= 5.822753D-01
              MO Center=  4.0D-02,  8.0D-02,  1.0D-01, r^2= 7.1D+00
   Bfn.  Coefficient  Atom+Function         Bfn.  Coefficient  Atom+Function  
  ----- ------------  ---------------      ----- ------------  ---------------
     4     15.349808  1 C  s                115      7.152346  3 O  s          
    30     -5.712806  1 C  dxx              169     -5.594406  4 O  s          
     5      4.653652  1 C  s                178     -4.650841  4 O  py         
   170      4.405782  4 O  s                 33     -4.261166  1 C  dyy        
   198     -2.990579  4 O  dyy              123      2.966567  3 O  py         

 Vector   56  Occ=0.000000D+00  E= 5.943699D-01
              MO Center=  3.9D-01,  7.7D-01,  7.4D-01, r^2= 5.5D+00
   Bfn.  Coefficient  Atom+Function         Bfn.  Coefficient  Atom+Function  
  ----- ------------  ---------------      ----- ------------  ---------------
    67      1.922859  2 O  px               231     -1.417454  5 H  px         
   122      1.336435  3 O  px                86      1.322354  2 O  dxy        
    31     -1.093673  1 C  dxy               68     -1.068221  2 O  py         
    88     -1.061765  2 O  dyy               85      1.052824  2 O  dxx        
    32     -0.953806  1 C  dxz              241      0.876579  5 H  dxy        

 Vector   57  Occ=0.000000D+00  E= 6.121240D-01
              MO Center= -1.8D-01, -2.8D-01,  3.4D-01, r^2= 7.1D+00
   Bfn.  Coefficient  Atom+Function         Bfn.  Coefficient  Atom+Function  
  ----- ------------  ---------------      ----- ------------  ---------------
   223     16.132301  5 H  s                 60    -13.741903  2 O  s          
     4     -7.016451  1 C  s                222     -6.769357  5 H  s          
    59      6.372515  2 O  s                 53     -5.110422  1 C  fyyz       
    69     -4.135304  2 O  pz                50     -3.571149  1 C  fxyz       
    11     -3.138995  1 C  pz                48     -2.836716  1 C  fxxz       

 Vector   58  Occ=0.000000D+00  E= 6.173942D-01
              MO Center=  7.5D-02,  1.1D-01, -2.1D-01, r^2= 5.2D+00
   Bfn.  Coefficient  Atom+Function         Bfn.  Coefficient  Atom+Function  
  ----- ------------  ---------------      ----- ------------  ---------------
    50      1.102884  1 C  fxyz             142     -1.066517  3 O  dxz        
   141     -0.935592  3 O  dxy              196     -0.920512  4 O  dxy        
    48      0.915250  1 C  fxxz              53     -0.868248  1 C  fyyz       
   195     -0.798428  4 O  dxx              198      0.764921  4 O  dyy        
   143      0.731159  3 O  dyy              140     -0.665276  3 O  dxx        

 Vector   59  Occ=0.000000D+00  E= 6.346434D-01
              MO Center= -3.6D-01, -6.5D-01,  7.5D-02, r^2= 7.0D+00
   Bfn.  Coefficient  Atom+Function         Bfn.  Coefficient  Atom+Function  
  ----- ------------  ---------------      ----- ------------  ---------------
    15      1.633578  1 C  px               125     -1.269475  3 O  px         
   196     -1.254734  4 O  dxy              180     -1.232827  4 O  px         
    70     -1.070241  2 O  px                12      1.005747  1 C  px         
   198      0.997737  4 O  dyy              197     -0.986327  4 O  dxz        
     9      0.953392  1 C  px               195     -0.934356  4 O  dxx        

 Vector   60  Occ=0.000000D+00  E= 6.381571D-01
              MO Center=  1.7D-01,  2.6D-01, -3.5D-01, r^2= 9.0D+00
   Bfn.  Coefficient  Atom+Function         Bfn.  Coefficient  Atom+Function  
  ----- ------------  ---------------      ----- ------------  ---------------
    60      6.831714  2 O  s                170     -6.646479  4 O  s          
   115     -5.131558  3 O  s                169     -4.733471  4 O  s          
   223     -3.796027  5 H  s                 14     -3.278490  1 C  pz         
   123     -2.971832  3 O  py               114      2.896159  3 O  s          
   145      2.465419  3 O  dzz               90     -2.357036  2 O  dzz        

 Vector   61  Occ=0.000000D+00  E= 6.499486D-01
              MO Center=  5.5D-02,  1.2D-01,  1.8D-01, r^2= 8.5D+00
   Bfn.  Coefficient  Atom+Function         Bfn.  Coefficient  Atom+Function  
  ----- ------------  ---------------      ----- ------------  ---------------
   223     16.502897  5 H  s                170     10.511212  4 O  s          
    60     -7.275665  2 O  s                 34     -6.924391  1 C  dyz        
     4     -5.387357  1 C  s                 14     -4.719659  1 C  pz         
   115     -4.326059  3 O  s                 35     -3.712832  1 C  dzz        
    32     -3.509585  1 C  dxz              222     -3.441588  5 H  s          

 Vector   62  Occ=0.000000D+00  E= 6.560381D-01
              MO Center= -1.9D-01, -3.9D-01, -4.0D-01, r^2= 6.7D+00
   Bfn.  Coefficient  Atom+Function         Bfn.  Coefficient  Atom+Function  
  ----- ------------  ---------------      ----- ------------  ---------------
   114     10.701545  3 O  s                169     -6.267535  4 O  s          
    10     -5.733813  1 C  py               123     -5.428416  3 O  py         
    33      5.173538  1 C  dyy               35      5.061211  1 C  dzz        
    47     -4.792916  1 C  fxxy              52     -4.656954  1 C  fyyy       
   178     -4.616930  4 O  py                54     -4.366678  1 C  fyzz       

 Vector   63  Occ=0.000000D+00  E= 6.584029D-01
              MO Center=  6.2D-02,  6.8D-02, -3.3D-01, r^2= 5.3D+00
   Bfn.  Coefficient  Atom+Function         Bfn.  Coefficient  Atom+Function  
  ----- ------------  ---------------      ----- ------------  ---------------
    32      3.143458  1 C  dxz               67     -2.232664  2 O  px         
    34     -1.770112  1 C  dyz              197     -1.526797  4 O  dxz        
   142     -1.503968  3 O  dxz               68      1.257965  2 O  py         
   144      0.912700  3 O  dyz              199      0.874625  4 O  dyz        
    12      0.642169  1 C  px               140      0.619206  3 O  dxx        

 Vector   64  Occ=0.000000D+00  E= 6.733370D-01
              MO Center= -1.6D-02, -4.8D-03,  2.3D-01, r^2= 4.1D+00
   Bfn.  Coefficient  Atom+Function         Bfn.  Coefficient  Atom+Function  
  ----- ------------  ---------------      ----- ------------  ---------------
    87     -2.065751  2 O  dxz               67      2.007595  2 O  px         
   122     -1.375086  3 O  px                32     -1.367399  1 C  dxz        
   197     -1.191343  4 O  dxz               89      1.171166  2 O  dyz        
   177     -1.173538  4 O  px               142     -1.165257  3 O  dxz        
    68     -1.121812  2 O  py                47      1.053492  1 C  fxxy       

 Vector   65  Occ=0.000000D+00  E= 6.834552D-01
              MO Center= -4.7D-02, -7.5D-02,  9.3D-02, r^2= 7.7D+00
   Bfn.  Coefficient  Atom+Function         Bfn.  Coefficient  Atom+Function  
  ----- ------------  ---------------      ----- ------------  ---------------
   170    -11.356240  4 O  s                169     11.176169  4 O  s          
    33      7.170543  1 C  dyy              178      5.625778  4 O  py         
    53      5.332352  1 C  fyyz              10      5.268344  1 C  py         
    35      5.215475  1 C  dzz               30      5.137647  1 C  dxx        
    14     -4.731198  1 C  pz                52      4.252557  1 C  fyyy       

 Vector   66  Occ=0.000000D+00  E= 6.989404D-01
              MO Center= -2.4D-01, -3.9D-01,  3.4D-01, r^2= 7.1D+00
   Bfn.  Coefficient  Atom+Function         Bfn.  Coefficient  Atom+Function  
  ----- ------------  ---------------      ----- ------------  ---------------
   115     10.270890  3 O  s                 33     -6.575016  1 C  dyy        
   222     -5.595067  5 H  s                 35     -4.653351  1 C  dzz        
    30     -4.289750  1 C  dxx              223      4.045712  5 H  s          
    31     -3.938312  1 C  dxy                4     -3.443421  1 C  s          
    60      3.057341  2 O  s                 72     -2.398748  2 O  pz         

 Vector   67  Occ=0.000000D+00  E= 7.322493D-01
              MO Center=  1.6D-01,  3.4D-01,  4.0D-01, r^2= 4.7D+00
   Bfn.  Coefficient  Atom+Function         Bfn.  Coefficient  Atom+Function  
  ----- ------------  ---------------      ----- ------------  ---------------
   122      3.457009  3 O  px                12     -1.945114  1 C  px         
   123     -1.885596  3 O  py               141     -1.538853  3 O  dxy        
   177      1.359842  4 O  px               140     -1.281230  3 O  dxx        
   143      1.238908  3 O  dyy                9     -1.129265  1 C  px         
    13      1.110566  1 C  py                32      1.044011  1 C  dxz        

 Vector   68  Occ=0.000000D+00  E= 7.338404D-01
              MO Center=  9.0D-02,  2.1D-01,  5.4D-01, r^2= 6.5D+00
   Bfn.  Coefficient  Atom+Function         Bfn.  Coefficient  Atom+Function  
  ----- ------------  ---------------      ----- ------------  ---------------
   170     11.148652  4 O  s                115      9.671685  3 O  s          
    60      8.755387  2 O  s                 33     -7.119456  1 C  dyy        
   114     -6.816589  3 O  s                  4     -6.395490  1 C  s          
     5     -5.959160  1 C  s                 35     -4.825924  1 C  dzz        
    30     -4.548077  1 C  dxx              222     -4.358646  5 H  s          

 Vector   69  Occ=0.000000D+00  E= 7.504138D-01
              MO Center=  2.2D-01,  4.2D-01,  3.4D-01, r^2= 7.8D+00
   Bfn.  Coefficient  Atom+Function         Bfn.  Coefficient  Atom+Function  
  ----- ------------  ---------------      ----- ------------  ---------------
   115     16.503401  3 O  s                  4    -13.483582  1 C  s          
    60     11.523704  2 O  s                  5     -8.747402  1 C  s          
   170      8.249084  4 O  s                 35     -7.391511  1 C  dzz        
    33     -5.527055  1 C  dyy               54      4.554405  1 C  fyzz       
    69     -4.402597  2 O  pz                30     -4.132630  1 C  dxx        

 Vector   70  Occ=0.000000D+00  E= 7.971513D-01
              MO Center=  1.8D-01,  3.3D-01,  1.2D-01, r^2= 6.5D+00
   Bfn.  Coefficient  Atom+Function         Bfn.  Coefficient  Atom+Function  
  ----- ------------  ---------------      ----- ------------  ---------------
     4     13.151090  1 C  s                 60     -8.382881  2 O  s          
   223      7.798263  5 H  s                 59     -7.606140  2 O  s          
   115     -6.076623  3 O  s                170     -6.074683  4 O  s          
    35      5.914851  1 C  dzz              169     -3.535316  4 O  s          
   178     -3.489225  4 O  py                 5      3.070291  1 C  s          

 Vector   71  Occ=0.000000D+00  E= 8.153648D-01
              MO Center=  3.1D-01,  7.0D-01,  1.2D+00, r^2= 6.2D+00
   Bfn.  Coefficient  Atom+Function         Bfn.  Coefficient  Atom+Function  
  ----- ------------  ---------------      ----- ------------  ---------------
   170      7.550088  4 O  s                 59     -6.380455  2 O  s          
   115      6.135626  3 O  s                 35     -4.849682  1 C  dzz        
    54     -3.411935  1 C  fyzz             123     -3.361722  3 O  py         
   169     -2.823482  4 O  s                232     -2.781198  5 H  py         
    30     -2.621529  1 C  dxx               69      2.534832  2 O  pz         

 Vector   72  Occ=0.000000D+00  E= 8.154904D-01
              MO Center=  4.4D-02,  1.2D-01,  3.9D-01, r^2= 5.0D+00
   Bfn.  Coefficient  Atom+Function         Bfn.  Coefficient  Atom+Function  
  ----- ------------  ---------------      ----- ------------  ---------------
   177      4.412519  4 O  px                31      2.813826  1 C  dxy        
   178     -2.473921  4 O  py                33     -2.286517  1 C  dyy        
    30      2.271063  1 C  dxx               67      1.964165  2 O  px         
   122     -1.814700  3 O  px               231     -1.758934  5 H  px         
   197      1.185079  4 O  dxz              196      1.133730  4 O  dxy        

 Vector   73  Occ=0.000000D+00  E= 8.752708D-01
              MO Center= -8.8D-02, -9.7D-02,  5.3D-01, r^2= 5.9D+00
   Bfn.  Coefficient  Atom+Function         Bfn.  Coefficient  Atom+Function  
  ----- ------------  ---------------      ----- ------------  ---------------
     4     12.292998  1 C  s                 60     -9.337255  2 O  s          
   223      7.766257  5 H  s                 13     -6.203910  1 C  py         
    34     -6.175069  1 C  dyz              179     -5.933221  4 O  pz         
     5      4.609230  1 C  s                 14      3.771776  1 C  pz         
    12     -3.714327  1 C  px               170     -3.662989  4 O  s          

 Vector   74  Occ=0.000000D+00  E= 8.827061D-01
              MO Center=  1.1D-01,  2.9D-01,  8.1D-01, r^2= 5.1D+00
   Bfn.  Coefficient  Atom+Function         Bfn.  Coefficient  Atom+Function  
  ----- ------------  ---------------      ----- ------------  ---------------
    12      3.445572  1 C  px               177     -2.832417  4 O  px         
    13     -2.021882  1 C  py               197     -1.661893  4 O  dxz        
    47      1.630130  1 C  fxxy             178      1.613041  4 O  py         
   122     -1.604003  3 O  px               196     -1.413550  4 O  dxy        
   241      1.173476  5 H  dxy                9      1.149204  1 C  px         

 Vector   75  Occ=0.000000D+00  E= 8.873969D-01
              MO Center=  1.6D-01,  2.9D-01,  9.1D-02, r^2= 6.2D+00
   Bfn.  Coefficient  Atom+Function         Bfn.  Coefficient  Atom+Function  
  ----- ------------  ---------------      ----- ------------  ---------------
     4     17.458167  1 C  s                 13     16.120912  1 C  py         
   115    -13.094742  3 O  s                 12      9.525606  1 C  px         
   223     -8.599104  5 H  s                 31      7.253329  1 C  dxy        
    33      7.228892  1 C  dyy               14     -7.036835  1 C  pz         
   114     -6.112768  3 O  s                 34     -5.320730  1 C  dyz        

 Vector   76  Occ=0.000000D+00  E= 9.139466D-01
              MO Center= -1.1D-01, -1.6D-01,  3.1D-01, r^2= 6.1D+00
   Bfn.  Coefficient  Atom+Function         Bfn.  Coefficient  Atom+Function  
  ----- ------------  ---------------      ----- ------------  ---------------
     4     17.112261  1 C  s                 13    -10.806980  1 C  py         
   170    -10.020152  4 O  s                 14     -8.875495  1 C  pz         
   169     -6.974810  4 O  s                 31      6.201985  1 C  dxy        
    33      6.019980  1 C  dyy              223     -5.709493  5 H  s          
    34      5.547832  1 C  dyz               12     -5.462459  1 C  px         

 Vector   77  Occ=0.000000D+00  E= 9.419716D-01
              MO Center=  6.6D-02,  1.6D-01,  4.1D-01, r^2= 4.5D+00
   Bfn.  Coefficient  Atom+Function         Bfn.  Coefficient  Atom+Function  
  ----- ------------  ---------------      ----- ------------  ---------------
    12      3.635439  1 C  px                49     -2.373318  1 C  fxyy       
    46     -2.351037  1 C  fxxx              13     -2.053726  1 C  py         
    51     -1.778207  1 C  fxzz              52      1.444635  1 C  fyyy       
   242     -1.300309  5 H  dxz               47      0.988124  1 C  fxxy       
    54      0.988778  1 C  fyzz             231      0.913320  5 H  px         

 Vector   78  Occ=0.000000D+00  E= 9.612496D-01
              MO Center=  1.5D-01,  3.7D-01,  9.2D-01, r^2= 6.0D+00
   Bfn.  Coefficient  Atom+Function         Bfn.  Coefficient  Atom+Function  
  ----- ------------  ---------------      ----- ------------  ---------------
     4     19.812698  1 C  s                223      9.885033  5 H  s          
   170     -7.933171  4 O  s                 31      6.787866  1 C  dxy        
    33      6.732293  1 C  dyy               60     -6.678825  2 O  s          
    34      5.438301  1 C  dyz              115     -5.411110  3 O  s          
   169     -4.593999  4 O  s                124     -4.346916  3 O  pz         

 Vector   79  Occ=0.000000D+00  E= 9.898404D-01
              MO Center= -8.5D-02, -1.7D-01, -9.6D-02, r^2= 6.1D+00
   Bfn.  Coefficient  Atom+Function         Bfn.  Coefficient  Atom+Function  
  ----- ------------  ---------------      ----- ------------  ---------------
   223     13.314297  5 H  s                 60    -11.913290  2 O  s          
    13     10.958901  1 C  py                34    -10.854871  1 C  dyz        
   170      8.979995  4 O  s                 14      7.362115  1 C  pz         
   179     -6.991511  4 O  pz                32     -6.183518  1 C  dxz        
    47     -5.825214  1 C  fxxy              52     -5.844348  1 C  fyyy       

 Vector   80  Occ=0.000000D+00  E= 9.933872D-01
              MO Center=  2.1D-01,  4.6D-01,  7.4D-01, r^2= 4.8D+00
   Bfn.  Coefficient  Atom+Function         Bfn.  Coefficient  Atom+Function  
  ----- ------------  ---------------      ----- ------------  ---------------
   122      3.791133  3 O  px                87     -3.221663  2 O  dxz        
    51     -3.058693  1 C  fxzz              49     -2.664374  1 C  fxyy       
    46     -2.569690  1 C  fxxx             177      2.270496  4 O  px         
   123     -2.124543  3 O  py               142      1.922590  3 O  dxz        
   242      1.919661  5 H  dxz                9     -1.898274  1 C  px         

 Vector   81  Occ=0.000000D+00  E= 1.036305D+00
              MO Center=  1.8D-01,  3.7D-01,  3.8D-01, r^2= 5.8D+00
   Bfn.  Coefficient  Atom+Function         Bfn.  Coefficient  Atom+Function  
  ----- ------------  ---------------      ----- ------------  ---------------
     4     12.438761  1 C  s                223      9.676776  5 H  s          
   178     -7.490974  4 O  py                13     -5.963945  1 C  py         
   170     -5.782259  4 O  s                222     -5.025189  5 H  s          
   198     -4.839462  4 O  dyy               59      4.712472  2 O  s          
    14     -4.530355  1 C  pz               177     -4.152195  4 O  px         

 Vector   82  Occ=0.000000D+00  E= 1.045843D+00
              MO Center= -2.8D-02,  7.1D-03,  5.0D-01, r^2= 5.9D+00
   Bfn.  Coefficient  Atom+Function         Bfn.  Coefficient  Atom+Function  
  ----- ------------  ---------------      ----- ------------  ---------------
   223     24.853207  5 H  s                  4    -18.635895  1 C  s          
    60    -17.551246  2 O  s                123     -8.856479  3 O  py         
    69      8.259440  2 O  pz                59     -8.081910  2 O  s          
   169      7.373120  4 O  s                114      7.309264  3 O  s          
    55      6.039264  1 C  fzzz              14      5.949669  1 C  pz         

 Vector   83  Occ=0.000000D+00  E= 1.077890D+00
              MO Center=  9.6D-02,  2.7D-01,  8.5D-01, r^2= 5.4D+00
   Bfn.  Coefficient  Atom+Function         Bfn.  Coefficient  Atom+Function  
  ----- ------------  ---------------      ----- ------------  ---------------
    14     11.235738  1 C  pz               223    -10.558753  5 H  s          
    34      7.245081  1 C  dyz              222     -7.039864  5 H  s          
    68      6.638516  2 O  py               115      6.585028  3 O  s          
    13     -6.341075  1 C  py                53     -5.659697  1 C  fyyz       
   170     -5.194237  4 O  s                 35      4.641943  1 C  dzz        

 Vector   84  Occ=0.000000D+00  E= 1.119927D+00
              MO Center= -3.3D-02, -3.5D-02,  2.3D-01, r^2= 5.4D+00
   Bfn.  Coefficient  Atom+Function         Bfn.  Coefficient  Atom+Function  
  ----- ------------  ---------------      ----- ------------  ---------------
   222     10.295487  5 H  s                223     -9.229054  5 H  s          
    68     -8.652825  2 O  py                 4      8.162535  1 C  s          
    14      6.302743  1 C  pz                48     -5.239060  1 C  fxxz       
    53     -5.193913  1 C  fyyz             179      5.157494  4 O  pz         
    86     -5.041008  2 O  dxy               67     -4.898672  2 O  px         

 Vector   85  Occ=0.000000D+00  E= 1.134957D+00
              MO Center= -4.4D-03, -2.7D-02, -1.4D-01, r^2= 3.9D+00
   Bfn.  Coefficient  Atom+Function         Bfn.  Coefficient  Atom+Function  
  ----- ------------  ---------------      ----- ------------  ---------------
   177      2.547651  4 O  px                26      2.469588  1 C  dxz        
    51     -2.420481  1 C  fxzz              32      2.333702  1 C  dxz        
   122      1.595391  3 O  px               196      1.519490  4 O  dxy        
    67     -1.486137  2 O  px                54      1.450297  1 C  fyzz       
   178     -1.432621  4 O  py                28     -1.357020  1 C  dyz        

 Vector   86  Occ=0.000000D+00  E= 1.168031D+00
              MO Center=  1.3D-01,  2.5D-01,  1.3D-01, r^2= 5.6D+00
   Bfn.  Coefficient  Atom+Function         Bfn.  Coefficient  Atom+Function  
  ----- ------------  ---------------      ----- ------------  ---------------
   114     16.655476  3 O  s                123    -14.646860  3 O  py         
   169    -10.321417  4 O  s                178     -9.896519  4 O  py         
   179     -9.357168  4 O  pz               122     -8.462375  3 O  px         
    10     -7.422292  1 C  py                68     -6.341269  2 O  py         
   143      6.103472  3 O  dyy               47     -5.742180  1 C  fxxy       

 Vector   87  Occ=0.000000D+00  E= 1.188726D+00
              MO Center=  2.8D-01,  5.2D-01,  1.4D-01, r^2= 5.2D+00
   Bfn.  Coefficient  Atom+Function         Bfn.  Coefficient  Atom+Function  
  ----- ------------  ---------------      ----- ------------  ---------------
   223     10.895610  5 H  s                124      9.346658  3 O  pz         
    60     -8.744639  2 O  s                169     -7.646454  4 O  s          
    13     -7.332475  1 C  py                 4      4.716910  1 C  s          
    55     -4.006505  1 C  fzzz              12     -3.959637  1 C  px         
   178     -3.890237  4 O  py               145      3.794802  3 O  dzz        

 Vector   88  Occ=0.000000D+00  E= 1.202640D+00
              MO Center=  5.6D-02,  1.9D-01,  8.1D-01, r^2= 4.6D+00
   Bfn.  Coefficient  Atom+Function         Bfn.  Coefficient  Atom+Function  
  ----- ------------  ---------------      ----- ------------  ---------------
    69     22.744123  2 O  pz                 4     16.602908  1 C  s          
    59    -13.969251  2 O  s                 53     13.833551  1 C  fyyz       
    48     10.465114  1 C  fxxz             169     10.361167  4 O  s          
    11      9.716401  1 C  pz                90     -9.646128  2 O  dzz        
    55      7.801397  1 C  fzzz             178      7.815136  4 O  py         

 Vector   89  Occ=0.000000D+00  E= 1.204486D+00
              MO Center=  7.1D-02,  1.2D-01, -6.7D-02, r^2= 4.4D+00
   Bfn.  Coefficient  Atom+Function         Bfn.  Coefficient  Atom+Function  
  ----- ------------  ---------------      ----- ------------  ---------------
   122      3.149471  3 O  px                25     -2.553910  1 C  dxy        
   177     -2.455640  4 O  px                31     -2.181537  1 C  dxy        
    24     -2.134678  1 C  dxx               27      2.107325  1 C  dyy        
    30     -1.790621  1 C  dxx               33      1.785349  1 C  dyy        
   123     -1.751200  3 O  py               197     -1.714849  4 O  dxz        

 Vector   90  Occ=0.000000D+00  E= 1.234305D+00
              MO Center= -1.5D-02,  2.5D-03,  2.7D-01, r^2= 3.6D+00
   Bfn.  Coefficient  Atom+Function         Bfn.  Coefficient  Atom+Function  
  ----- ------------  ---------------      ----- ------------  ---------------
    51      5.378091  1 C  fxzz              87      3.793953  2 O  dxz        
    54     -3.021867  1 C  fyzz              67     -2.945928  2 O  px         
    26      2.712526  1 C  dxz               89     -2.087126  2 O  dyz        
    68      1.624662  2 O  py                32      1.583297  1 C  dxz        
    12      1.513120  1 C  px                28     -1.504180  1 C  dyz        

 Vector   91  Occ=0.000000D+00  E= 1.251692D+00
              MO Center= -2.9D-02,  2.2D-04,  4.6D-01, r^2= 5.3D+00
   Bfn.  Coefficient  Atom+Function         Bfn.  Coefficient  Atom+Function  
  ----- ------------  ---------------      ----- ------------  ---------------
   169     16.589594  4 O  s                114    -14.507580  3 O  s          
   223    -11.697069  5 H  s                222     11.624674  5 H  s          
    54     11.387074  1 C  fyzz             178     11.363994  4 O  py         
    68    -11.112681  2 O  py               123      9.744840  3 O  py         
   124     -9.170305  3 O  pz                10      8.557037  1 C  py         

 Vector   92  Occ=0.000000D+00  E= 1.267996D+00
              MO Center=  6.3D-02,  2.1D-01,  8.2D-01, r^2= 4.2D+00
   Bfn.  Coefficient  Atom+Function         Bfn.  Coefficient  Atom+Function  
  ----- ------------  ---------------      ----- ------------  ---------------
    67     -3.506962  2 O  px                50      3.327032  1 C  fxyz       
   177     -3.163740  4 O  px                51      2.542231  1 C  fxzz       
    48      2.266943  1 C  fxxz              53     -2.251354  1 C  fyyz       
    86     -2.101169  2 O  dxy              228      2.040672  5 H  px         
    47      1.977781  1 C  fxxy              68      1.964555  2 O  py         

 Vector   93  Occ=0.000000D+00  E= 1.307661D+00
              MO Center= -1.7D-02, -2.5D-02,  7.8D-02, r^2= 3.8D+00
   Bfn.  Coefficient  Atom+Function         Bfn.  Coefficient  Atom+Function  
  ----- ------------  ---------------      ----- ------------  ---------------
    50      3.507730  1 C  fxyz              53     -3.433717  1 C  fyyz       
    48      3.176951  1 C  fxxz              47     -3.107985  1 C  fxxy       
   122      3.091894  3 O  px                52      2.462555  1 C  fyyy       
    67      2.403818  2 O  px                46     -2.140739  1 C  fxxx       
    49     -1.926597  1 C  fxyy             177      1.927956  4 O  px         

 Vector   94  Occ=0.000000D+00  E= 1.317906D+00
[...]
  ----- ------------  ---------------      ----- ------------  ---------------
   121     10.537527  3 O  pz               176      6.006036  4 O  pz         
   124      5.432849  3 O  pz               148     -5.224960  3 O  fxxz       
   155     -5.241149  3 O  fzzz             153     -5.201026  3 O  fyyz       
    66      5.010529  2 O  pz                57      4.738909  2 O  s          
   167     -4.558814  4 O  s                 50     -4.442831  1 C  fxyz       

 Vector  235  Occ=0.000000D+00  E= 1.431344D+01
              MO Center= -4.1D-01, -7.6D-01, -2.6D-01, r^2= 2.3D+00
   Bfn.  Coefficient  Atom+Function         Bfn.  Coefficient  Atom+Function  
  ----- ------------  ---------------      ----- ------------  ---------------
   176     13.633885  4 O  pz               179      7.322047  4 O  pz         
   223     -6.982631  5 H  s                203     -6.616639  4 O  fxxz       
   210     -6.607311  4 O  fzzz             208     -6.502613  4 O  fyyz       
   175     -5.924905  4 O  py                60      5.363957  2 O  s          
    34      5.246577  1 C  dyz               65      5.211267  2 O  py         

 Vector  236  Occ=0.000000D+00  E= 1.471799D+01
              MO Center=  2.1D-01,  3.8D-01,  1.6D-01, r^2= 2.9D+00
   Bfn.  Coefficient  Atom+Function         Bfn.  Coefficient  Atom+Function  
  ----- ------------  ---------------      ----- ------------  ---------------
   121     10.455032  3 O  pz                65      7.777523  2 O  py         
   124      7.707631  3 O  pz                34     -7.320684  1 C  dyz        
    68      6.849244  2 O  py               120      5.911507  3 O  py         
   223      5.821674  5 H  s                148     -5.275107  3 O  fxxz       
   155     -5.297738  3 O  fzzz             153     -5.260051  3 O  fyyz       

 Vector  237  Occ=0.000000D+00  E= 1.510455D+01
              MO Center= -4.7D-02, -8.5D-02,  2.0D-02, r^2= 2.7D+00
   Bfn.  Coefficient  Atom+Function         Bfn.  Coefficient  Atom+Function  
  ----- ------------  ---------------      ----- ------------  ---------------
    50     11.137380  1 C  fxyz              53      9.646394  1 C  fyyz       
     4      8.570515  1 C  s                169      7.467803  4 O  s          
   178     -6.400986  4 O  py               112      5.753819  3 O  s          
    25     -5.509170  1 C  dxy              175     -5.510871  4 O  py         
   123      5.463994  3 O  py               167      5.203192  4 O  s          

 Vector  238  Occ=0.000000D+00  E= 1.560906D+01
              MO Center= -5.1D-02,  5.8D-02,  1.3D+00, r^2= 1.6D+00
   Bfn.  Coefficient  Atom+Function         Bfn.  Coefficient  Atom+Function  
  ----- ------------  ---------------      ----- ------------  ---------------
    66     14.924925  2 O  pz                69     11.776776  2 O  pz         
     4     10.967983  1 C  s                 11      8.601333  1 C  pz         
    65      7.438641  2 O  py                59     -7.337811  2 O  s          
    93     -7.048088  2 O  fxxz             100     -6.939603  2 O  fzzz       
    98     -6.732135  2 O  fyyz              57      5.565304  2 O  s          

 Vector  239  Occ=0.000000D+00  E= 1.601246D+01
              MO Center= -3.7D-02,  7.1D-03,  6.4D-01, r^2= 3.1D+00
   Bfn.  Coefficient  Atom+Function         Bfn.  Coefficient  Atom+Function  
  ----- ------------  ---------------      ----- ------------  ---------------
     4     17.552853  1 C  s                 57    -10.901042  2 O  s          
    66      6.467729  2 O  pz               123      6.020443  3 O  py         
   167     -5.934122  4 O  s                 56     -5.401151  2 O  s          
   175     -5.381441  4 O  py               112     -4.988585  3 O  s          
   110     -4.805537  2 O  fzzz             120      4.586551  3 O  py         

 Vector  240  Occ=0.000000D+00  E= 1.626780D+01
              MO Center=  1.5D-01,  2.8D-01,  1.3D-01, r^2= 2.9D+00
   Bfn.  Coefficient  Atom+Function         Bfn.  Coefficient  Atom+Function  
  ----- ------------  ---------------      ----- ------------  ---------------
   112      9.466441  3 O  s                 57     -8.127522  2 O  s          
   114      7.490395  3 O  s                 14      7.162042  1 C  pz         
     4     -7.120402  1 C  s                167      6.537321  4 O  s          
   115      5.770025  3 O  s                 69      5.635112  2 O  pz         
   170      5.463376  4 O  s                 33     -5.067700  1 C  dyy        

 Vector  241  Occ=0.000000D+00  E= 1.654798D+01
              MO Center= -1.2D-01, -2.8D-01, -5.5D-01, r^2= 2.1D+00
   Bfn.  Coefficient  Atom+Function         Bfn.  Coefficient  Atom+Function  
  ----- ------------  ---------------      ----- ------------  ---------------
   169     19.125907  4 O  s                114    -15.825446  3 O  s          
   167      8.926065  4 O  s                123      7.858653  3 O  py         
   178      7.817920  4 O  py                10      7.492256  1 C  py         
   124     -5.754771  3 O  pz               112     -5.629592  3 O  s          
   179      5.655028  4 O  pz                52      5.495691  1 C  fyyy       

 Vector  242  Occ=0.000000D+00  E= 1.687118D+01
              MO Center= -7.5D-02, -1.0D-02,  1.1D+00, r^2= 1.2D+00
   Bfn.  Coefficient  Atom+Function         Bfn.  Coefficient  Atom+Function  
  ----- ------------  ---------------      ----- ------------  ---------------
    59     12.059123  2 O  s                  4      5.890947  1 C  s          
    57      5.886505  2 O  s                 84     -5.178439  2 O  dzz        
    79     -5.150130  2 O  dxx               82     -5.088314  2 O  dyy        
    66      4.659689  2 O  pz               169      4.287365  4 O  s          
    90     -3.790287  2 O  dzz               88     -3.724136  2 O  dyy        

 Vector  243  Occ=0.000000D+00  E= 1.727740D+01
              MO Center=  4.1D-01,  6.8D-01, -3.3D-01, r^2= 1.5D+00
   Bfn.  Coefficient  Atom+Function         Bfn.  Coefficient  Atom+Function  
  ----- ------------  ---------------      ----- ------------  ---------------
   123     11.704642  3 O  py               120      9.960350  3 O  py         
    13      9.805171  1 C  py               169      9.231130  4 O  s          
     4      8.258570  1 C  s                178      8.258360  4 O  py         
   124     -8.124029  3 O  pz               143     -7.195210  3 O  dyy        
   122      7.097724  3 O  px                10      7.050578  1 C  py         

 Vector  244  Occ=0.000000D+00  E= 1.792232D+01
              MO Center= -2.8D-01, -5.3D-01, -2.1D-01, r^2= 2.4D+00
   Bfn.  Coefficient  Atom+Function         Bfn.  Coefficient  Atom+Function  
  ----- ------------  ---------------      ----- ------------  ---------------
     4     15.675933  1 C  s                114     11.338500  3 O  s          
   178    -11.179623  4 O  py                14    -10.499161  1 C  pz         
   175    -10.001645  4 O  py                50     -9.310555  1 C  fxyz       
   169     -9.279592  4 O  s                170     -8.559095  4 O  s          
    13     -8.500776  1 C  py                53     -8.315466  1 C  fyyz       

 Vector  245  Occ=0.000000D+00  E= 2.656654D+01
              MO Center= -3.2D-03, -1.5D-02, -5.4D-02, r^2= 1.6D+00
   Bfn.  Coefficient  Atom+Function         Bfn.  Coefficient  Atom+Function  
  ----- ------------  ---------------      ----- ------------  ---------------
     2     29.467766  1 C  s                169    -27.843137  4 O  s          
   114    -15.183447  3 O  s                  1     14.555675  1 C  s          
    25     12.697522  1 C  dxy               53    -11.978727  1 C  fyyz       
     4     11.583615  1 C  s                178    -10.926914  4 O  py         
    11     -9.765145  1 C  pz                27      8.718108  1 C  dyy        


   alpha - beta orbital overlaps 
   ----------------------------- 


   alpha      1      2      3      4      5      6      7      8      9     10
    beta      1      2      3      4      5      6      7      8      9     10
 overlap   1.000  1.000  1.000  1.000  0.997  0.988  0.986  0.998  0.985  0.985


   alpha     11     12     13     14     15     16     17     18     19     20
    beta     11     12     15     16     13     14     17     18     19     20
 overlap   1.000  0.983  0.753  0.747  1.000  0.999  1.000  1.000  0.999  1.000


   alpha     21     22     23     24     25     26     27     28     29     30
    beta     21     22     23     24     25     26     27     28     29     30
 overlap   1.000  0.999  0.998  0.998  1.000  0.984  0.984  0.999  0.996  0.994


   alpha     31     32     33     34     35     36     37     38     39     40
    beta     31     32     33     34     36     35     37     38     39     40
 overlap   1.000  0.995  0.871  0.875  0.998  1.000  0.999  0.999  1.000  0.994


   alpha     41     42     43     44     45     46     47     48     49     50
    beta     41     42     43     44     45     46     47     48     49     50
 overlap   0.998  0.998  1.000  0.998  1.000  0.983  0.983  0.997  0.974  0.977


   alpha     51     52     53     54     55     56     57     58     59     60
    beta     51     52     53     54     55     56     57     58     59     60
 overlap   0.993  1.000  0.999  0.998  0.998  0.999  0.998  0.999  0.999  0.993


   alpha     61     62     63     64     65     66     67     68     69     70
    beta     61     62     63     64     65     66     67     68     69     70
 overlap   0.965  0.969  0.993  0.993  0.999  0.997  1.000  0.998  0.999  0.992


   alpha     71     72     73     74     75     76     77     78     79     80
    beta     72     71     73     74     75     76     77     78     80     79
 overlap   0.992  1.000  0.996  1.000  0.997  0.999  1.000  0.998  0.997  1.000


   alpha     81     82     83     84     85     86     87     88     89     90
    beta     81     82     83     84     85     86     87     88     89     90
 overlap   0.994  0.995  0.999  0.999  1.000  0.998  0.995  0.996  1.000  1.000


   alpha     91     92     93     94     95     96     97     98     99    100
    beta     91     92     93     94     95     96     97     98     99    100
 overlap   0.999  0.999  0.999  0.999  0.998  0.998  1.000  0.999  0.999  0.995


   alpha    101    102    103    104    105    106    107    108    109    110
    beta    101    102    103    104    105    106    107    108    109    110
 overlap   0.997  0.997  0.996  0.996  0.999  0.997  0.985  0.989  0.863  0.872


   alpha    111    112    113    114    115    116    117    118    119    120
    beta    111    112    113    114    115    116    117    118    119    120
 overlap   0.851  0.990  0.792  0.997  0.800  0.993  0.998  0.993  0.999  0.997


   alpha    121    122    123    124    125    126    127    128    129    130
    beta    121    122    123    124    125    126    127    128    129    130
 overlap   0.997  0.997  0.999  0.996  0.996  0.995  0.997  0.998  1.000  0.997


   alpha    131    132    133    134    135    136    137    138    139    140
    beta    131    132    133    134    135    136    137    138    139    140
 overlap   0.998  0.999  0.998  0.996  0.998  0.998  0.997  0.998  0.997  0.995


   alpha    141    142    143    144    145    146    147    148    149    150
    beta    141    142    143    144    145    146    147    148    149    150
 overlap   0.996  0.998  0.998  0.999  0.999  1.000  0.999  0.996  0.995  0.999


   alpha    151    152    153    154    155    156    157    158    159    160
    beta    151    152    153    154    155    156    157    158    159    160
 overlap   0.999  0.999  1.000  0.999  1.000  1.000  1.000  1.000  1.000  1.000


   alpha    161    162    163    164    165    166    167    168    169    170
    beta    161    162    163    164    165    166    167    168    169    170
 overlap   1.000  0.999  0.999  1.000  0.999  1.000  1.000  0.998  0.997  0.999


   alpha    171    172    173    174    175    176    177    178    179    180
    beta    171    172    173    174    175    176    177    178    180    179
 overlap   1.000  1.000  1.000  1.000  1.000  0.998  0.987  0.982  0.994  0.993


   alpha    181    182    183    184    185    186    187    188    189    190
    beta    181    182    183    184    185    186    187    188    189    190
 overlap   0.983  0.984  0.994  0.991  1.000  0.998  0.996  0.996  0.995  0.953


   alpha    191    192    193    194    195    196    197    198    199    200
    beta    191    192    193    194    195    197    196    198    199    200
 overlap   0.940  0.975  0.994  0.995  0.994  0.969  0.995  0.953  0.920  0.993


   alpha    201    202    203    204    205    206    207    208    209    210
    beta    201    202    203    204    205    206    207    208    209    210
 overlap   0.990  0.998  0.998  0.947  0.885  0.927  0.976  0.976  0.998  1.000


   alpha    211    212    213    214    215    216    217    218    219    220
    beta    211    212    213    214    215    216    217    218    219    220
 overlap   0.986  0.988  1.000  0.998  1.000  0.996  0.997  0.995  0.993  0.995


   alpha    221    222    223    224    225    226    227    228    229    230
    beta    221    222    223    224    225    226    227    228    229    230
 overlap   1.000  0.995  0.995  1.000  1.000  1.000  1.000  1.000  1.000  1.000


   alpha    231    232    233    234    235    236    237    238    239    240
    beta    231    232    233    234    235    236    237    238    239    240
 overlap   1.000  1.000  1.000  1.000  1.000  1.000  1.000  1.000  1.000  1.000


   alpha    241    242    243    244    245
    beta    241    242    243    244    245
 overlap   1.000  1.000  1.000  1.000  1.000

     --------------------------
     Expectation value of S2:  
     --------------------------
      <S2> =      0.7541 (Exact =     0.7500)


 center of mass
 --------------
 x =  -0.00814449 y =   0.00473014 z =   0.21319224

 moments of inertia (a.u.)
 ------------------
         273.333818223678         -64.960494521855           5.680323866306
         -64.960494521855         193.149275419063          -8.416283135250
           5.680323866306          -8.416283135250         153.723924238898

     Multipole analysis of the density
     ---------------------------------

     L   x y z        total         alpha         beta         nuclear
     -   - - -        -----         -----         ----         -------
     0   0 0 0     -0.000000    -16.000000    -15.000000     31.000000

     1   1 0 0      0.248969      0.036360      0.129464      0.083145
     1   0 1 0      0.493990     -0.246478     -0.175434      0.915902
     1   0 0 1      0.414288     -3.436131     -4.187830      8.038249

     2   2 0 0    -16.477493    -18.256624    -16.835289     18.614420
     2   1 1 0     -0.434317    -17.784852    -15.654738     33.005273
     2   1 0 1      1.000327      1.505193      1.363200     -1.868065
     2   0 2 0    -16.736473    -40.225264    -36.207960     59.696751
     2   0 1 1      1.763467     -2.421126     -2.442932      6.627526
     2   0 0 2    -16.347281    -51.413540    -49.282847     84.349106


 Task  times  cpu:       30.8s     wall:       33.0s


                                NWChem Input Module
                                -------------------


 Summary of allocated global arrays
-----------------------------------
  No active global arrays


MA_summarize_allocated_blocks: starting scan ...
heap block 'gridpts', handle 118, address 0x11751140:
	type of elements:		double precision
	number of elements:		33554432
	address of client space:	0x117511c0
	index for client space:		12004753
	total number of bytes:		268435592
MA_summarize_allocated_blocks: scan completed: 1 heap block, 0 stack blocks
MA usage statistics:

	allocation statistics:
					      heap	     stack
					      ----	     -----
	current number of blocks	         1	         0
	maximum number of blocks	        21	        53
	current total bytes		 268435592	         0
	maximum total bytes		 268871656	  34394616
	maximum total K-bytes		    268872	     34395
	maximum total M-bytes		       269	        35


                                     CITATION
                                     --------
                Please cite the following reference when publishing
                           results obtained with NWChem:

          E. Apra, E. J. Bylaska, W. A. de Jong, N. Govind, K. Kowalski,
       T. P. Straatsma, M. Valiev, H. J. J. van Dam, Y. Alexeev, J. Anchell,
       V. Anisimov, F. W. Aquino, R. Atta-Fynn, J. Autschbach, N. P. Bauman,
     J. C. Becca, D. E. Bernholdt, K. Bhaskaran-Nair, S. Bogatko, P. Borowski,
         J. Boschen, J. Brabec, A. Bruner, E. Cauet, Y. Chen, G. N. Chuev,
      C. J. Cramer, J. Daily, M. J. O. Deegan, T. H. Dunning Jr., M. Dupuis,
   K. G. Dyall, G. I. Fann, S. A. Fischer, A. Fonari, H. Fruchtl, L. Gagliardi,
      J. Garza, N. Gawande, S. Ghosh, K. Glaesemann, A. W. Gotz, J. Hammond,
       V. Helms, E. D. Hermes, K. Hirao, S. Hirata, M. Jacquelin, L. Jensen,
   B. G. Johnson, H. Jonsson, R. A. Kendall, M. Klemm, R. Kobayashi, V. Konkov,
      S. Krishnamoorthy, M. Krishnan, Z. Lin, R. D. Lins, R. J. Littlefield,
      A. J. Logsdail, K. Lopata, W. Ma, A. V. Marenich, J. Martin del Campo,
   D. Mejia-Rodriguez, J. E. Moore, J. M. Mullin, T. Nakajima, D. R. Nascimento,
    J. A. Nichols, P. J. Nichols, J. Nieplocha, A. Otero-de-la-Roza, B. Palmer,
    A. Panyala, T. Pirojsirikul, B. Peng, R. Peverati, J. Pittner, L. Pollack,
   R. M. Richard, P. Sadayappan, G. C. Schatz, W. A. Shelton, D. W. Silverstein,
   D. M. A. Smith, T. A. Soares, D. Song, M. Swart, H. L. Taylor, G. S. Thomas,
            V. Tipparaju, D. G. Truhlar, K. Tsemekhman, T. Van Voorhis,
      A. Vazquez-Mayagoitia, P. Verma, O. Villa, A. Vishnu, K. D. Vogiatzis,
        D. Wang, J. H. Weare, M. J. Williamson, T. L. Windus, K. Wolinski,
        A. T. Wong, Q. Wu, C. Yang, Q. Yu, M. Zacharias, Z. Zhang, Y. Zhao,
                                and R. J. Harrison
                        "NWChem: Past, present, and future
                         J. Chem. Phys. 152, 184102 (2020)
                               doi:10.1063/5.0004997

                                      AUTHORS
                                      -------
  E. Apra, E. J. Bylaska, N. Govind, K. Kowalski, M. Valiev, D. Mejia-Rodriguez,
       A. Kunitsa, N. P. Bauman, A. Panyala, W. A. de Jong, T. P. Straatsma,
   H. J. J. van Dam, D. Wang, T. L. Windus, J. Hammond, J. Autschbach, A. Woods,
    K. Bhaskaran-Nair, J. Brabec, K. Lopata, S. A. Fischer, S. Krishnamoorthy,
     M. Jacquelin, W. Ma, M. Klemm, O. Villa, Y. Chen, V. Anisimov, F. Aquino,
     S. Hirata, M. T. Hackler, E. Hermes, L. Jensen, J. E. Moore, J. C. Becca,
      V. Konjkov, T. Risthaus, M. Malagoli, A. Marenich, A. Otero-de-la-Roza,
        J. Mullin, P. Nichols, R. Peverati, J. Pittner, Y. Zhao, P.-D. Fan,
        A. Fonari, M. J. Williamson, R. J. Harrison, J. R. Rehr, M. Dupuis,
     D. Silverstein, D. M. A. Smith, J. Nieplocha, V. Tipparaju, M. Krishnan,
     B. E. Van Kuiken, A. Vazquez-Mayagoitia, M. Swart, Q. Wu, T. Van Voorhis,
     A. A. Auer, M. Nooijen, L. D. Crosby, E. Brown, G. Cisneros, G. I. Fann,
   H. Fruchtl, J. Garza, K. Hirao, R. A. Kendall, J. A. Nichols, K. Tsemekhman,
    K. Wolinski, J. Anchell, D. E. Bernholdt, P. Borowski, T. Clark, D. Clerc,
   H. Dachsel, M. J. O. Deegan, K. Dyall, D. Elwood, E. Glendening, M. Gutowski,
   A. C. Hess, J. Jaffe, B. G. Johnson, J. Ju, R. Kobayashi, R. Kutteh, Z. Lin,
   R. Littlefield, X. Long, B. Meng, T. Nakajima, S. Niu, L. Pollack, M. Rosing,
   K. Glaesemann, G. Sandrone, M. Stave, H. Taylor, G. Thomas, J. H. van Lenthe,
                               A. T. Wong, Z. Zhang.

 Total times  cpu:       30.9s     wall:       33.2s
