 argument  1 = proton/mol.nwi
                                         
                                         


             Northwest Computational Chemistry Package (NWChem) 7.2.2
             --------------------------------------------------------


                    Environmental Molecular Sciences Laboratory
                       Pacific Northwest National Laboratory
                                Richland, WA 99352

                              Copyright (c) 1994-2022
                       Pacific Northwest National Laboratory
                            Battelle Memorial Institute

             NWChem is an open-source computational chemistry package
                        distributed under the terms of the
                      Educational Community License (ECL) 2.0
             A copy of the license is included with this distribution
                              in the LICENSE.TXT file

                                  ACKNOWLEDGMENT
                                  --------------

            This software and its documentation were developed at the
            EMSL at Pacific Northwest National Laboratory, a multiprogram
            national laboratory, operated for the U.S. Department of Energy
            by Battelle under Contract Number DE-AC05-76RL01830. Support
            for this work was provided by the Department of Energy Office
            of Biological and Environmental Research, Office of Basic
            Energy Sciences, and the Office of Advanced Scientific Computing.


           Job information
           ---------------

    hostname        = r203.ib.bridges2.psc.edu
    program         = nwchem
    date            = Wed Oct  2 10:51:57 2024

    compiled        = Mon_Mar_18_17:03:37_2024
    source          = /ocean/projects/pscstaff/mmadrid/nwchem-7.2.2
    nwchem branch   = 7.2.2
    nwchem revision = 74936fb9
    ga revision     = 5.8.0
    use scalapack   = F
    input           = proton/mol.nwi
    prefix          = dft.
    data base       = .//dft.db
    status          = startup
    nproc           =       15
    time left       =     -1s



           Memory information
           ------------------

    heap     =   67108862 doubles =    512.0 Mbytes
    stack    =   67108859 doubles =    512.0 Mbytes
    global   =  134217728 doubles =   1024.0 Mbytes (distinct from heap & stack)
    total    =  268435449 doubles =   2048.0 Mbytes
    verify   = yes
    hardfail = no 


           Directory information
           ---------------------

  0 permanent = ./
  0 scratch   = /jet/home/hmt47/nwchem_scratch/




                                NWChem Input Module
                                -------------------


  library name resolved from: environment
  library file name is: </opt/packages/nwchem/nwchem7.2.2/share/nwchem/libraries/>
  


 Summary of "ao basis" -> "" (cartesian)
 ------------------------------------------------------------------------------
       Tag                 Description            Shells   Functions and Types
 ---------------- ------------------------------  ------  ---------------------
 *                        aug-cc-pVTZ                 on all atoms 


  pbe96 is a nonlocal functional; adding pw91lda local functional. 

 Scaling coordinates for geometry "geometry" by  1.889725989
 (inverse scale =  0.529177249)



                             Geometry "geometry" -> ""
                             -------------------------

 Output coordinates in angstroms (scale by  1.889725989 to convert to a.u.)

  No.       Tag          Charge          X              Y              Z
 ---- ---------------- ---------- -------------- -------------- --------------
    1 Br                  35.0000     0.00000000     0.00000000     0.00000000
    2 H                    1.0000     0.91320274     0.02365322    -0.40681850

      Atomic Mass 
      ----------- 

      Br                79.916500
      H                  1.007825


 Effective nuclear repulsion energy (a.u.)      18.5212037150

            Nuclear Dipole moment (a.u.) 
            ----------------------------
        X                 Y               Z
 ---------------- ---------------- ----------------
     1.7257029424     0.0446981072    -0.7687754846


            XYZ format geometry
            -------------------
     2
 geometry
 Br                    0.00000000     0.00000000     0.00000000
 H                     0.91320274     0.02365322    -0.40681850

 ==============================================================================
                                internuclear distances
 ------------------------------------------------------------------------------
       center one      |      center two      | atomic units |  angstroms
 ------------------------------------------------------------------------------
    2 H                |   1 Br               |     1.88973  |     1.00000
 ------------------------------------------------------------------------------
                         number of included internuclear distances:          1
 ==============================================================================





                           NWChem Geometry Optimization
                           ----------------------------


 maximum gradient threshold         (gmax) =   0.000450
 rms gradient threshold             (grms) =   0.000300
 maximum cartesian step threshold   (xmax) =   0.001800
 rms cartesian step threshold       (xrms) =   0.001200
 fixed trust radius                (trust) =   0.300000
 maximum step size to saddle      (sadstp) =   0.100000
 energy precision                  (eprec) =   5.0D-06
 maximum number of steps          (nptopt) =   40
 initial hessian option           (inhess) =    0
 line search option               (linopt) =    1
 hessian update option            (modupd) =    1
 saddle point option              (modsad) =    0
 initial eigen-mode to follow     (moddir) =    0
 initial variable to follow       (vardir) =    0
 follow first negative mode     (firstneg) =    T
 apply conjugacy                    (opcg) =    F
 source of zmatrix                         =           


          -------------------
          Energy Minimization
          -------------------


 Using diagonal initial Hessian 

          --------
          Step   0
          --------


                         Geometry "geometry" -> "geometry"
                         ---------------------------------

 Output coordinates in angstroms (scale by  1.889725989 to convert to a.u.)

  No.       Tag          Charge          X              Y              Z
 ---- ---------------- ---------- -------------- -------------- --------------
    1 Br                  35.0000     0.00000000     0.00000000     0.00000000
    2 H                    1.0000     0.91320274     0.02365322    -0.40681850

      Atomic Mass 
      ----------- 

      Br                79.916500
      H                  1.007825


 Effective nuclear repulsion energy (a.u.)      18.5212037150

            Nuclear Dipole moment (a.u.) 
            ----------------------------
        X                 Y               Z
 ---------------- ---------------- ----------------
     1.7257029424     0.0446981072    -0.7687754846


                                 NWChem DFT Module
                                 -----------------


                      Basis "ao basis" -> "ao basis" (cartesian)
                      -----
  Br (Bromine)
  ------------
            Exponent  Coefficients 
       -------------- ---------------------------------------------------------
  1 S  1.06390000E+07  0.000006
  1 S  1.59340000E+06  0.000046
  1 S  3.62610000E+05  0.000242
  1 S  1.02700000E+05  0.001023
  1 S  3.35010000E+04  0.003711
  1 S  1.20930000E+04  0.011979
  1 S  4.71590000E+03  0.034693
  1 S  1.95560000E+03  0.089124
  1 S  8.52610000E+02  0.193456
  1 S  3.87670000E+02  0.320902
  1 S  1.82680000E+02  0.329923
  1 S  8.82450000E+01  0.149412
  1 S  3.92630000E+01  0.014994
  1 S  1.92340000E+01 -0.000917
  1 S  9.40570000E+00  0.000438
  1 S  4.16010000E+00 -0.000240
  1 S  1.89950000E+00  0.000074
  1 S  3.01140000E-01  0.000024

  2 S  1.06390000E+07 -0.000002
  2 S  1.59340000E+06 -0.000015
  2 S  3.62610000E+05 -0.000076
  2 S  1.02700000E+05 -0.000321
  2 S  3.35010000E+04 -0.001171
  2 S  1.20930000E+04 -0.003797
  2 S  4.71590000E+03 -0.011231
  2 S  1.95560000E+03 -0.029928
  2 S  8.52610000E+02 -0.071271
  2 S  3.87670000E+02 -0.140314
  2 S  1.82680000E+02 -0.203076
  2 S  8.82450000E+01 -0.096099
  2 S  3.92630000E+01  0.355809
  2 S  1.92340000E+01  0.592179
  2 S  9.40570000E+00  0.221598
  2 S  4.16010000E+00  0.013765
  2 S  1.89950000E+00  0.000840
  2 S  3.01140000E-01 -0.000009

  3 S  1.06390000E+07  0.000001
  3 S  1.59340000E+06  0.000006
  3 S  3.62610000E+05  0.000030
  3 S  1.02700000E+05  0.000128
  3 S  3.35010000E+04  0.000466
  3 S  1.20930000E+04  0.001510
  3 S  4.71590000E+03  0.004485
  3 S  1.95560000E+03  0.011984
  3 S  8.52610000E+02  0.028957
  3 S  3.87670000E+02  0.058157
  3 S  1.82680000E+02  0.088813
  3 S  8.82450000E+01  0.044524
  3 S  3.92630000E+01 -0.206039
  3 S  1.92340000E+01 -0.512702
  3 S  9.40570000E+00 -0.150935
  3 S  4.16010000E+00  0.678920
  3 S  1.89950000E+00  0.581770
  3 S  3.01140000E-01 -0.011183

  4 S  1.06390000E+07 -0.000000
  4 S  1.59340000E+06 -0.000002
  4 S  3.62610000E+05 -0.000009
  4 S  1.02700000E+05 -0.000039
  4 S  3.35010000E+04 -0.000143
  4 S  1.20930000E+04 -0.000463
  4 S  4.71590000E+03 -0.001375
  4 S  1.95560000E+03 -0.003678
  4 S  8.52610000E+02 -0.008898
  4 S  3.87670000E+02 -0.017953
  4 S  1.82680000E+02 -0.027573
  4 S  8.82450000E+01 -0.014095
  4 S  3.92630000E+01  0.067256
  4 S  1.92340000E+01  0.176693
  4 S  9.40570000E+00  0.052886
  4 S  4.16010000E+00 -0.307596
  4 S  1.89950000E+00 -0.470066
  4 S  3.01140000E-01  0.698034

  5 S  6.04720000E-01  1.000000

  6 S  1.25150000E-01  1.000000

  7 S  4.55930000E-02  1.000000

  8 P  8.67650000E+03  0.000436
  8 P  2.05590000E+03  0.003782
  8 P  6.66230000E+02  0.020478
  8 P  2.53100000E+02  0.079283
  8 P  1.06120000E+02  0.217847
  8 P  4.72420000E+01  0.387859
  8 P  2.18250000E+01  0.359435
  8 P  9.96840000E+00  0.112200
  8 P  4.51710000E+00  0.004387
  8 P  1.99820000E+00  0.001781
  8 P  2.81450000E-01  0.000212

  9 P  8.67650000E+03 -0.000175
  9 P  2.05590000E+03 -0.001526
  9 P  6.66230000E+02 -0.008340
  9 P  2.53100000E+02 -0.033220
  9 P  1.06120000E+02 -0.095418
  9 P  4.72420000E+01 -0.182403
  9 P  2.18250000E+01 -0.155831
  9 P  9.96840000E+00  0.186790
  9 P  4.51710000E+00  0.542773
  9 P  1.99820000E+00  0.387331
  9 P  2.81450000E-01 -0.004378

 10 P  8.67650000E+03  0.000045
 10 P  2.05590000E+03  0.000396
 10 P  6.66230000E+02  0.002156
 10 P  2.53100000E+02  0.008672
 10 P  1.06120000E+02  0.024868
 10 P  4.72420000E+01  0.048547
 10 P  2.18250000E+01  0.039616
 10 P  9.96840000E+00 -0.060575
 10 P  4.51710000E+00 -0.187170
 10 P  1.99820000E+00 -0.137776
 10 P  2.81450000E-01  0.576090

 11 P  7.09880000E-01  1.000000

 12 P  1.02040000E-01  1.000000

 13 P  3.51420000E-02  1.000000

 14 D  4.03830000E+02  0.001473
 14 D  1.21170000E+02  0.012673
 14 D  4.63450000E+01  0.058045
 14 D  1.97210000E+01  0.170510
 14 D  8.86240000E+00  0.318596
 14 D  3.99620000E+00  0.384502
 14 D  1.76360000E+00  0.273774

 15 D  7.06190000E-01  1.000000

 16 D  2.63900000E-01  1.000000

 17 D  1.04700000E-01  1.000000

 18 F  5.51500000E-01  1.000000

 19 F  2.58000000E-01  1.000000

  H (Hydrogen)
  ------------
            Exponent  Coefficients 
       -------------- ---------------------------------------------------------
  1 S  3.38700000E+01  0.006068
  1 S  5.09500000E+00  0.045308
  1 S  1.15900000E+00  0.202822

  2 S  3.25800000E-01  1.000000

  3 S  1.02700000E-01  1.000000

  4 S  2.52600000E-02  1.000000

  5 P  1.40700000E+00  1.000000

  6 P  3.88000000E-01  1.000000

  7 P  1.02000000E-01  1.000000

  8 D  1.05700000E+00  1.000000

  9 D  2.47000000E-01  1.000000



 Summary of "ao basis" -> "ao basis" (cartesian)
 ------------------------------------------------------------------------------
       Tag                 Description            Shells   Functions and Types
 ---------------- ------------------------------  ------  ---------------------
 Br                       aug-cc-pVTZ               19       69   7s6p4d2f
 H                        aug-cc-pVTZ                9       25   4s3p2d




 Summary of "ao basis" -> "ao basis" (cartesian)
 ------------------------------------------------------------------------------
       Tag                 Description            Shells   Functions and Types
 ---------------- ------------------------------  ------  ---------------------
 Br                       aug-cc-pVTZ               19       69   7s6p4d2f
 H                        aug-cc-pVTZ                9       25   4s3p2d


  Caching 1-el integrals 

            General Information
            -------------------
          SCF calculation type: DFT
          Wavefunction type:  closed shell.
          No. of atoms     :     2
          No. of electrons :    36
           Alpha electrons :    18
            Beta electrons :    18
          Charge           :     0
          Spin multiplicity:     1
          Use of symmetry is: off; symmetry adaption is: off
          Maximum number of iterations: 200
          AO basis - number of functions:    94
                     number of shells:    28
          Convergence on energy requested:  1.00D-06
          Convergence on density requested:  1.00D-05
          Convergence on gradient requested:  5.00D-04

              XC Information
              --------------
          PerdewBurkeErnzerhof Exchange Functional  1.000          
            Perdew 1991 LDA Correlation Functional  1.000 local    
           PerdewBurkeErnz. Correlation Functional  1.000 non-local

             Grid Information
             ----------------
          Grid used for XC integration:  medium    
          Radial quadrature: Mura-Knowles        
          Angular quadrature: Lebedev. 
          Tag              B.-S. Rad. Rad. Pts. Rad. Cut. Ang. Pts.
          ---              ---------- --------- --------- ---------
          Br                  1.15      112          11.0       590
          H                   0.35       45          11.0       434
          Grid pruning is: on 
          Number of quadrature shells:   157
          Spatial weights used:  Erf1

          Convergence Information
          -----------------------
          Convergence aids based upon iterative change in 
          total energy or number of iterations. 
          Levelshifting, if invoked, occurs when the 
          HOMO/LUMO gap drops below (HL_TOL):  1.00D-02
          DIIS, if invoked, will attempt to extrapolate 
          using up to (NFOCK): 10 stored Fock matrices.

                    Damping(40%)  Levelshifting(0.0)       DIIS
                  --------------- ------------------- ---------------
          dE  on:    start            0.00D+00            start   
          dE off:  200 iters          0.00D+00          200 iters 


      Screening Tolerance Information
      -------------------------------
          Density screening/tol_rho:  1.00D-10
          AO Gaussian exp screening on grid/accAOfunc:  14
          CD Gaussian exp screening on grid/accCDfunc:  20
          XC Gaussian exp screening on grid/accXCfunc:  20
          Schwarz screening/accCoul:  1.00D-08


 Forcing the number of linearly dependent vectors to be  0

      Superposition of Atomic Density Guess
      -------------------------------------

 Sum of atomic energies:       -2572.94587215
   Time after variat. SCF:      2.4
   Time prior to 1st pass:      2.4

 Grid_pts file          = /jet/home/hmt47/nwchem_scratch//dft.gridpts.00
 Record size in doubles =  12289        No. of grid_pts per rec  =   3070
 Max. records in memory =      4        Max. recs in file   =  67550051


           Memory utilization after 1st SCF pass: 
           Heap Space remaining (MW):       33.50            33500438
          Stack Space remaining (MW):       67.11            67108268

   convergence    iter        energy       DeltaE   RMS-Dens  Diis-err    time
 ---------------- ----- ----------------- --------- --------- ---------  ------
 d=40,ls=0.0,diis     1  -2574.6860682907 -2.59D+03  4.73D-02  3.83D+01     3.0
 d=40,ls=0.0,diis     2  -2574.4111028495  2.75D-01  1.52D-02  5.99D+00     4.1
 d=40,ls=0.0,diis     3  -2574.2974151933  1.14D-01  9.12D-03  9.88D-01     5.1
 d=40,ls=0.0,diis     4  -2574.2545679695  4.28D-02  2.17D-03  1.57D-01     6.1
 d=40,ls=0.0,diis     5  -2574.2372489757  1.73D-02  1.12D-03  2.52D-02     7.1
  Resetting Diis
 d=40,ls=0.0,diis     6  -2574.2303056153  6.94D-03  4.56D-04  4.01D-03     8.2
 d=40,ls=0.0,diis     7  -2574.2275269468  2.78D-03  1.71D-04  6.41D-04     9.2
 d=40,ls=0.0,diis     8  -2574.2264150866  1.11D-03  1.17D-04  1.00D-04    10.2
 d=40,ls=0.0,diis     9  -2574.2259702800  4.45D-04  2.81D-05  1.63D-05    11.2
 d=40,ls=0.0,diis    10  -2574.2257923989  1.78D-04  1.31D-05  2.67D-06    12.2
 d=40,ls=0.0,diis    11  -2574.2257212446  7.12D-05  5.31D-06  4.28D-07    13.3
 d=40,ls=0.0,diis    12  -2574.2256927827  2.85D-05  2.31D-06  6.85D-08    14.3
 d=40,ls=0.0,diis    13  -2574.2256813979  1.14D-05  9.18D-07  1.10D-08    15.3
 d=40,ls=0.0,diis    14  -2574.2256768439  4.55D-06  3.71D-07  1.75D-09    16.3
  Singularity in Pulay matrix. Error and Fock matrices removed. 
  Singularity in Pulay matrix. Error and Fock matrices removed. 
  Singularity in Pulay matrix. Error and Fock matrices removed. 
  Singularity in Pulay matrix. Error and Fock matrices removed. 
  Singularity in Pulay matrix. Error and Fock matrices removed. 
  Singularity in Pulay matrix. Error and Fock matrices removed. 
  Singularity in Pulay matrix. Error and Fock matrices removed. 
 d=40,ls=0.0,diis    15  -2574.2256750224  1.82D-06  1.48D-07  2.80D-10    17.3
  Singularity in Pulay matrix. Error and Fock matrices removed. 
 d=40,ls=0.0,diis    16  -2574.2256742938  7.29D-07  5.95D-08  4.49D-11    18.4


         Total DFT energy =    -2574.225674293767
      One electron energy =    -3618.161941203432
           Coulomb energy =     1116.811098845904
    Exchange-Corr. energy =      -91.396035651228
 Nuclear repulsion energy =       18.521203714989

 Numeric. integr. density =       35.999980959220

     Total iterative time =     16.0s



                       DFT Final Molecular Orbital Analysis
                       ------------------------------------

 Vector    1  Occ=2.000000D+00  E=-4.810395D+02
              MO Center= -3.1D-08, -8.1D-10,  1.4D-08, r^2= 7.2D-04
   Bfn.  Coefficient  Atom+Function         Bfn.  Coefficient  Atom+Function  
  ----- ------------  ---------------      ----- ------------  ---------------
     1      1.000845  1 Br s          

 Vector    2  Occ=2.000000D+00  E=-6.183373D+01
              MO Center=  3.7D-05,  9.6D-07, -1.6D-05, r^2= 1.2D-02
   Bfn.  Coefficient  Atom+Function         Bfn.  Coefficient  Atom+Function  
  ----- ------------  ---------------      ----- ------------  ---------------
     2      0.974665  1 Br s                  6     -0.056655  1 Br s          
     3     -0.041342  1 Br s                 71     -0.030488  2 H  s          
    26      0.030069  1 Br dxx               29      0.030119  1 Br dyy        
    31      0.030109  1 Br dzz        

 Vector    3  Occ=2.000000D+00  E=-5.574645D+01
              MO Center= -3.1D-05, -8.1D-07,  1.4D-05, r^2= 9.5D-03
   Bfn.  Coefficient  Atom+Function         Bfn.  Coefficient  Atom+Function  
  ----- ------------  ---------------      ----- ------------  ---------------
     8      0.914042  1 Br px                10     -0.407192  1 Br pz         
    72     -0.041334  2 H  s                  6      0.034540  1 Br s          

 Vector    4  Occ=2.000000D+00  E=-5.574468D+01
              MO Center=  1.4D-06,  3.6D-08, -6.1D-07, r^2= 9.5D-03
   Bfn.  Coefficient  Atom+Function         Bfn.  Coefficient  Atom+Function  
  ----- ------------  ---------------      ----- ------------  ---------------
     9      0.815938  1 Br py                10     -0.520296  1 Br pz         
     8     -0.252918  1 Br px         

 Vector    5  Occ=2.000000D+00  E=-5.574468D+01
              MO Center=  1.4D-06,  3.6D-08, -6.1D-07, r^2= 9.5D-03
   Bfn.  Coefficient  Atom+Function         Bfn.  Coefficient  Atom+Function  
  ----- ------------  ---------------      ----- ------------  ---------------
    10      0.751099  1 Br pz                 9      0.578027  1 Br py         
     8      0.319632  1 Br px         

 Vector    6  Occ=2.000000D+00  E=-8.430051D+00
              MO Center=  2.3D-03,  6.1D-05, -1.0D-03, r^2= 1.0D-01
   Bfn.  Coefficient  Atom+Function         Bfn.  Coefficient  Atom+Function  
  ----- ------------  ---------------      ----- ------------  ---------------
     3      0.951297  1 Br s                  5      0.066557  1 Br s          

 Vector    7  Occ=2.000000D+00  E=-6.308254D+00
              MO Center= -6.8D-04, -1.8D-05,  3.0D-04, r^2= 1.1D-01
   Bfn.  Coefficient  Atom+Function         Bfn.  Coefficient  Atom+Function  
  ----- ------------  ---------------      ----- ------------  ---------------
    11      0.939976  1 Br px                13     -0.418746  1 Br pz         
    72     -0.204066  2 H  s                  6      0.162018  1 Br s          
    14      0.098737  1 Br px                20      0.083362  1 Br px         
    16     -0.043986  1 Br pz                22     -0.037136  1 Br pz         
    80      0.034550  2 H  px                50     -0.030857  1 Br fxxx       

 Vector    8  Occ=2.000000D+00  E=-6.294163D+00
              MO Center=  7.2D-04,  1.9D-05, -3.2D-04, r^2= 1.1D-01
   Bfn.  Coefficient  Atom+Function         Bfn.  Coefficient  Atom+Function  
  ----- ------------  ---------------      ----- ------------  ---------------
    12      0.977394  1 Br py                13     -0.213091  1 Br pz         
    11     -0.120245  1 Br px                15      0.064889  1 Br py         
    18      0.036614  1 Br py         

 Vector    9  Occ=2.000000D+00  E=-6.294163D+00
              MO Center=  7.2D-04,  1.9D-05, -3.2D-04, r^2= 1.1D-01
   Bfn.  Coefficient  Atom+Function         Bfn.  Coefficient  Atom+Function  
  ----- ------------  ---------------      ----- ------------  ---------------
    13      0.895403  1 Br pz                11      0.392582  1 Br px         
    12      0.243513  1 Br py                16      0.059445  1 Br pz         
    19      0.033543  1 Br pz                14      0.026063  1 Br px         

 Vector   10  Occ=2.000000D+00  E=-2.516908D+00
              MO Center=  3.5D-03,  9.1D-05, -1.6D-03, r^2= 1.2D-01
   Bfn.  Coefficient  Atom+Function         Bfn.  Coefficient  Atom+Function  
  ----- ------------  ---------------      ----- ------------  ---------------
    28      1.072010  1 Br dxz               26     -0.722478  1 Br dxx        
    29      0.479908  1 Br dyy               31      0.241932  1 Br dzz        
    34      0.088137  1 Br dxz               71     -0.063839  2 H  s          
    27     -0.062329  1 Br dxy               32     -0.051363  1 Br dxx        
    35      0.047494  1 Br dyy               72      0.042402  2 H  s          

 Vector   11  Occ=2.000000D+00  E=-2.506142D+00
              MO Center=  2.5D-04,  6.5D-06, -1.1D-04, r^2= 1.2D-01
   Bfn.  Coefficient  Atom+Function         Bfn.  Coefficient  Atom+Function  
  ----- ------------  ---------------      ----- ------------  ---------------
    27      1.506644  1 Br dxy               30     -0.677551  1 Br dyz        
    28     -0.135224  1 Br dxz               33      0.132422  1 Br dxy        
    26     -0.123946  1 Br dxx               31      0.084838  1 Br dzz        
    36     -0.059551  1 Br dyz               29      0.039107  1 Br dyy        

 Vector   12  Occ=2.000000D+00  E=-2.506142D+00
              MO Center=  2.5D-04,  6.5D-06, -1.1D-04, r^2= 1.2D-01
   Bfn.  Coefficient  Atom+Function         Bfn.  Coefficient  Atom+Function  
  ----- ------------  ---------------      ----- ------------  ---------------
    28      1.110108  1 Br dxz               31     -0.615543  1 Br dzz        
    26      0.609732  1 Br dxx               27      0.240127  1 Br dxy        
    34      0.097570  1 Br dxz               30     -0.064149  1 Br dyz        
    37     -0.054101  1 Br dzz               32      0.053591  1 Br dxx        

 Vector   13  Occ=2.000000D+00  E=-2.496380D+00
              MO Center=  1.4D-04,  3.6D-06, -6.1D-05, r^2= 1.2D-01
   Bfn.  Coefficient  Atom+Function         Bfn.  Coefficient  Atom+Function  
  ----- ------------  ---------------      ----- ------------  ---------------
    30      1.528427  1 Br dyz               27      0.680892  1 Br dxy        
    36      0.133567  1 Br dyz               33      0.059502  1 Br dxy        
    28     -0.026477  1 Br dxz        

 Vector   14  Occ=2.000000D+00  E=-2.496378D+00
              MO Center=  1.4D-04,  3.6D-06, -6.1D-05, r^2= 1.2D-01
   Bfn.  Coefficient  Atom+Function         Bfn.  Coefficient  Atom+Function  
  ----- ------------  ---------------      ----- ------------  ---------------
    29      0.836382  1 Br dyy               31     -0.698195  1 Br dzz        
    28     -0.622489  1 Br dxz               26     -0.138187  1 Br dxx        
    35      0.073091  1 Br dyy               37     -0.061015  1 Br dzz        
    34     -0.054399  1 Br dxz               27     -0.036152  1 Br dxy        

 Vector   15  Occ=2.000000D+00  E=-8.085913D-01
              MO Center=  3.8D-01,  9.8D-03, -1.7D-01, r^2= 8.0D-01
   Bfn.  Coefficient  Atom+Function         Bfn.  Coefficient  Atom+Function  
  ----- ------------  ---------------      ----- ------------  ---------------
     4      0.532652  1 Br s                  6      0.281801  1 Br s          
     5      0.210746  1 Br s                 71      0.208826  2 H  s          
    70      0.176873  2 H  s                 17      0.070316  1 Br px         
    11     -0.068605  1 Br px                28      0.068462  1 Br dxz        
     3     -0.064934  1 Br s                 14      0.061553  1 Br px         

 Vector   16  Occ=2.000000D+00  E=-4.358603D-01
              MO Center= -9.7D-02, -2.5D-03,  4.3D-02, r^2= 1.2D+00
   Bfn.  Coefficient  Atom+Function         Bfn.  Coefficient  Atom+Function  
  ----- ------------  ---------------      ----- ------------  ---------------
     6      0.936699  1 Br s                 72     -0.762551  2 H  s          
    71     -0.298399  2 H  s                  4      0.283628  1 Br s          
    17     -0.263236  1 Br px                14     -0.234967  1 Br px         
    70     -0.175109  2 H  s                 20      0.165674  1 Br px         
    11      0.143451  1 Br px                19      0.117268  1 Br pz         

 Vector   17  Occ=2.000000D+00  E=-2.829038D-01
              MO Center=  5.2D-02,  1.4D-03, -2.3D-02, r^2= 1.5D+00
   Bfn.  Coefficient  Atom+Function         Bfn.  Coefficient  Atom+Function  
  ----- ------------  ---------------      ----- ------------  ---------------
    15      0.407419  1 Br py                18      0.350226  1 Br py         
    21      0.235600  1 Br py                12     -0.109079  1 Br py         
    66      0.059282  1 Br fyyy              68      0.059121  1 Br fyzz       
    61      0.058486  1 Br fxxy              51      0.056612  1 Br fxxy       
    58      0.042812  1 Br fyzz              56      0.039377  1 Br fyyy       

 Vector   18  Occ=2.000000D+00  E=-2.829038D-01
              MO Center=  5.2D-02,  1.4D-03, -2.3D-02, r^2= 1.5D+00
   Bfn.  Coefficient  Atom+Function         Bfn.  Coefficient  Atom+Function  
  ----- ------------  ---------------      ----- ------------  ---------------
    16      0.372478  1 Br pz                19      0.320190  1 Br pz         
    22      0.215394  1 Br pz                14      0.165360  1 Br px         
    17      0.142147  1 Br px                13     -0.099724  1 Br pz         
    20      0.095623  1 Br px                67      0.054196  1 Br fyyz       
    69      0.054053  1 Br fzzz              62      0.053757  1 Br fxxz       

 Vector   19  Occ=0.000000D+00  E=-1.705570D-02
              MO Center=  9.6D-01,  2.5D-02, -4.3D-01, r^2= 1.1D+01
   Bfn.  Coefficient  Atom+Function         Bfn.  Coefficient  Atom+Function  
  ----- ------------  ---------------      ----- ------------  ---------------
    73      1.579988  2 H  s                  6     -1.179941  1 Br s          
     7     -1.008101  1 Br s                 72      0.901234  2 H  s          
    23     -0.265672  1 Br px                 4     -0.168115  1 Br s          
    47      0.161350  1 Br dyy               20     -0.155007  1 Br px         
    49      0.147838  1 Br dzz               41      0.143205  1 Br dyy        

 Vector   20  Occ=0.000000D+00  E= 3.157405D-02
              MO Center= -9.4D-01, -2.4D-02,  4.2D-01, r^2= 1.1D+01
   Bfn.  Coefficient  Atom+Function         Bfn.  Coefficient  Atom+Function  
  ----- ------------  ---------------      ----- ------------  ---------------
    72      1.958415  2 H  s                 23     -1.111297  1 Br px         
     7      0.950401  1 Br s                 44     -0.615663  1 Br dxx        
    49     -0.524248  1 Br dzz               47     -0.501691  1 Br dyy        
    25      0.495066  1 Br pz                14      0.390054  1 Br px         
    41     -0.340505  1 Br dyy               20     -0.331071  1 Br px         

 Vector   21  Occ=0.000000D+00  E= 4.215504D-02
              MO Center=  4.4D-03,  1.1D-04, -2.0D-03, r^2= 1.3D+01
   Bfn.  Coefficient  Atom+Function         Bfn.  Coefficient  Atom+Function  
  ----- ------------  ---------------      ----- ------------  ---------------
    24      1.342226  1 Br py                15     -0.784466  1 Br py         
    21     -0.742553  1 Br py                61      0.362947  1 Br fxxy       
    68      0.346040  1 Br fyzz              66      0.341869  1 Br fyyy       
    12     -0.333324  1 Br py                56      0.203863  1 Br fyyy       
    58      0.203254  1 Br fyzz              51      0.200786  1 Br fxxy       

 Vector   22  Occ=0.000000D+00  E= 4.215504D-02
              MO Center=  4.4D-03,  1.1D-04, -2.0D-03, r^2= 1.3D+01
   Bfn.  Coefficient  Atom+Function         Bfn.  Coefficient  Atom+Function  
  ----- ------------  ---------------      ----- ------------  ---------------
    25      1.226356  1 Br pz                16     -0.716746  1 Br pz         
    22     -0.678451  1 Br pz                23      0.546471  1 Br px         
    62      0.323976  1 Br fxxz              14     -0.319385  1 Br px         
    69      0.316172  1 Br fzzz              67      0.312360  1 Br fyyz       
    13     -0.304549  1 Br pz                20     -0.302322  1 Br px         

 Vector   23  Occ=0.000000D+00  E= 6.587670D-02
              MO Center=  6.6D-01,  1.7D-02, -3.0D-01, r^2= 7.6D+00
   Bfn.  Coefficient  Atom+Function         Bfn.  Coefficient  Atom+Function  
  ----- ------------  ---------------      ----- ------------  ---------------
    72     13.698766  2 H  s                  6    -11.411146  1 Br s          
     7      5.983140  1 Br s                 20     -4.628672  1 Br px         
    44     -3.487737  1 Br dxx               80     -3.287976  2 H  px         
    73     -2.253716  2 H  s                 49     -2.146458  1 Br dzz        
    22      2.062006  1 Br pz                47     -1.815488  1 Br dyy        

 Vector   24  Occ=0.000000D+00  E= 8.316060D-02
              MO Center=  1.3D+00,  3.4D-02, -5.8D-01, r^2= 1.6D+01
   Bfn.  Coefficient  Atom+Function         Bfn.  Coefficient  Atom+Function  
  ----- ------------  ---------------      ----- ------------  ---------------
     7      7.969219  1 Br s                 73     -4.133724  2 H  s          
     6      2.736382  1 Br s                 71     -1.823728  2 H  s          
    47     -1.486284  1 Br dyy               49     -1.425051  1 Br dzz        
    23      1.259248  1 Br px                44     -1.176904  1 Br dxx        
    41     -0.900118  1 Br dyy                5     -0.768393  1 Br s          

 Vector   25  Occ=0.000000D+00  E= 1.179528D-01
              MO Center=  3.7D-01,  9.7D-03, -1.7D-01, r^2= 4.6D+00
   Bfn.  Coefficient  Atom+Function         Bfn.  Coefficient  Atom+Function  
  ----- ------------  ---------------      ----- ------------  ---------------
    81      1.387433  2 H  py                21     -1.128238  1 Br py         
    15     -0.556405  1 Br py                45      0.409981  1 Br dxy        
    90     -0.364381  2 H  dxy               12     -0.286386  1 Br py         
    78      0.274572  2 H  py                39     -0.189439  1 Br dxy        
    48     -0.184252  1 Br dyz               64      0.174961  1 Br fxyz       

 Vector   26  Occ=0.000000D+00  E= 1.179528D-01
              MO Center=  3.7D-01,  9.7D-03, -1.7D-01, r^2= 4.6D+00
   Bfn.  Coefficient  Atom+Function         Bfn.  Coefficient  Atom+Function  
  ----- ------------  ---------------      ----- ------------  ---------------
    82      1.269564  2 H  pz                22     -1.032389  1 Br pz         
    80      0.560604  2 H  px                16     -0.509136  1 Br pz         
    20     -0.455874  1 Br px                46      0.301963  1 Br dxz        
    91     -0.268377  2 H  dxz               13     -0.262056  1 Br pz         
    79      0.251246  2 H  pz                14     -0.224820  1 Br px         

 Vector   27  Occ=0.000000D+00  E= 1.449625D-01
              MO Center=  1.1D-02,  2.8D-04, -4.7D-03, r^2= 4.3D+00
   Bfn.  Coefficient  Atom+Function         Bfn.  Coefficient  Atom+Function  
  ----- ------------  ---------------      ----- ------------  ---------------
    48      1.498260  1 Br dyz               45      0.667453  1 Br dxy        
    36      0.202790  1 Br dyz               30     -0.169187  1 Br dyz        
    33      0.090340  1 Br dxy               64      0.083315  1 Br fxyz       
    27     -0.075370  1 Br dxy               42      0.064158  1 Br dyz        
    61      0.046305  1 Br fxxy              68     -0.046305  1 Br fyzz       

 Vector   28  Occ=0.000000D+00  E= 1.449627D-01
              MO Center=  1.1D-02,  2.8D-04, -4.7D-03, r^2= 4.3D+00
   Bfn.  Coefficient  Atom+Function         Bfn.  Coefficient  Atom+Function  
  ----- ------------  ---------------      ----- ------------  ---------------
    47      0.819870  1 Br dyy               49     -0.684412  1 Br dzz        
    46     -0.610200  1 Br dxz               44     -0.135459  1 Br dxx        
    35      0.110970  1 Br dyy               29     -0.092582  1 Br dyy        
    37     -0.092635  1 Br dzz               34     -0.082591  1 Br dxz        
    31      0.077286  1 Br dzz               28      0.068906  1 Br dxz        

 Vector   29  Occ=0.000000D+00  E= 2.104027D-01
              MO Center=  9.5D-02,  2.5D-03, -4.2D-02, r^2= 1.0D+01
   Bfn.  Coefficient  Atom+Function         Bfn.  Coefficient  Atom+Function  
  ----- ------------  ---------------      ----- ------------  ---------------
     6     27.414645  1 Br s                 72    -25.676373  2 H  s          
    20     10.697208  1 Br px                80      7.358343  2 H  px         
    22     -4.765450  1 Br pz                44      3.458069  1 Br dxx        
     7     -3.263219  1 Br s                 82     -3.278035  2 H  pz         
    49      2.234014  1 Br dzz               47      1.931970  1 Br dyy        

 Vector   30  Occ=0.000000D+00  E= 2.612942D-01
              MO Center=  2.1D-01,  5.4D-03, -9.3D-02, r^2= 1.1D+01
   Bfn.  Coefficient  Atom+Function         Bfn.  Coefficient  Atom+Function  
  ----- ------------  ---------------      ----- ------------  ---------------
    72     62.473047  2 H  s                  6    -43.444590  1 Br s          
    20    -21.331695  1 Br px                 7     13.660369  1 Br s          
    44    -13.669911  1 Br dxx               80    -12.349187  2 H  px         
    22      9.502959  1 Br pz                49     -9.539744  1 Br dzz        
    47     -8.520596  1 Br dyy               82      5.501382  2 H  pz         

 Vector   31  Occ=0.000000D+00  E= 2.685305D-01
              MO Center=  3.7D-02,  9.5D-04, -1.6D-02, r^2= 8.9D+00
   Bfn.  Coefficient  Atom+Function         Bfn.  Coefficient  Atom+Function  
  ----- ------------  ---------------      ----- ------------  ---------------
    81      2.602700  2 H  py                45     -2.034046  1 Br dxy        
    15      1.588270  1 Br py                61     -1.488956  1 Br fxxy       
    82      1.367428  2 H  pz                68     -1.265556  1 Br fyzz       
    66     -1.215246  1 Br fyyy              24     -1.099086  1 Br py         
    12      1.015216  1 Br py                18     -0.912132  1 Br py         

 Vector   32  Occ=0.000000D+00  E= 2.685305D-01
              MO Center=  3.7D-02,  9.5D-04, -1.6D-02, r^2= 8.9D+00
   Bfn.  Coefficient  Atom+Function         Bfn.  Coefficient  Atom+Function  
  ----- ------------  ---------------      ----- ------------  ---------------
    82      2.363979  2 H  pz                81     -1.469136  2 H  py         
    46     -1.459717  1 Br dxz               16      1.442593  1 Br pz         
    62     -1.248517  1 Br fxxz              69     -1.152461  1 Br fzzz       
    45      1.120023  1 Br dxy               67     -1.107314  1 Br fyyz       
    80      1.091170  2 H  px                25     -0.998277  1 Br pz         

 Vector   33  Occ=0.000000D+00  E= 3.056939D-01
              MO Center=  7.0D-01,  1.8D-02, -3.1D-01, r^2= 6.7D+00
   Bfn.  Coefficient  Atom+Function         Bfn.  Coefficient  Atom+Function  
  ----- ------------  ---------------      ----- ------------  ---------------
    21      5.347289  1 Br py                81     -3.751302  2 H  py         
    22     -3.149327  1 Br pz                45      2.988321  1 Br dxy        
    15      2.294047  1 Br py                82      2.209359  2 H  pz         
    20     -1.541481  1 Br px                66     -1.524203  1 Br fyyy       
    68     -1.470686  1 Br fyzz              46     -1.386583  1 Br dxz        

 Vector   34  Occ=0.000000D+00  E= 3.056939D-01
              MO Center=  7.0D-01,  1.8D-02, -3.1D-01, r^2= 6.7D+00
   Bfn.  Coefficient  Atom+Function         Bfn.  Coefficient  Atom+Function  
  ----- ------------  ---------------      ----- ------------  ---------------
    22      4.919619  1 Br pz                21      3.503077  1 Br py         
    82     -3.451279  2 H  pz                81     -2.457526  2 H  py         
    46      2.243034  1 Br dxz               16      2.110572  1 Br pz         
    20      2.100885  1 Br px                45      2.003054  1 Br dxy        
    15      1.502859  1 Br py                80     -1.473840  2 H  px         

 Vector   35  Occ=0.000000D+00  E= 3.088282D-01
              MO Center=  9.8D-01,  2.5D-02, -4.4D-01, r^2= 7.4D+00
   Bfn.  Coefficient  Atom+Function         Bfn.  Coefficient  Atom+Function  
  ----- ------------  ---------------      ----- ------------  ---------------
    72     26.190809  2 H  s                  6    -23.806320  1 Br s          
    80     -8.049863  2 H  px                20     -4.547089  1 Br px         
     7     -4.360123  1 Br s                 82      3.586096  2 H  pz         
    22      2.025662  1 Br pz                73      1.698022  2 H  s          
    41      1.414114  1 Br dyy               43      1.353838  1 Br dzz        

 Vector   36  Occ=0.000000D+00  E= 3.304745D-01
              MO Center=  5.8D-02,  1.5D-03, -2.6D-02, r^2= 7.8D+00
   Bfn.  Coefficient  Atom+Function         Bfn.  Coefficient  Atom+Function  
  ----- ------------  ---------------      ----- ------------  ---------------
    72    -41.615327  2 H  s                  6     38.342236  1 Br s          
    20     14.957911  1 Br px                80      7.745455  2 H  px         
    22     -6.663532  1 Br pz                71     -6.196614  2 H  s          
    44      6.164603  1 Br dxx                7      5.658434  1 Br s          
    46     -5.190511  1 Br dxz               82     -3.450487  2 H  pz         

 Vector   37  Occ=0.000000D+00  E= 4.783322D-01
              MO Center=  1.3D-01,  3.5D-03, -6.0D-02, r^2= 4.1D+00
   Bfn.  Coefficient  Atom+Function         Bfn.  Coefficient  Atom+Function  
  ----- ------------  ---------------      ----- ------------  ---------------
    40      1.961277  1 Br dxz               16      1.189678  1 Br pz         
    46     -1.188598  1 Br dxz               38      1.090562  1 Br dxx        
    43     -1.090150  1 Br dzz               91      1.013680  2 H  dxz        
    13      0.694056  1 Br pz                44     -0.660917  1 Br dxx        
    49      0.660667  1 Br dzz               65     -0.608820  1 Br fxzz       

 Vector   38  Occ=0.000000D+00  E= 4.783322D-01
              MO Center=  1.3D-01,  3.5D-03, -6.0D-02, r^2= 4.1D+00
   Bfn.  Coefficient  Atom+Function         Bfn.  Coefficient  Atom+Function  
  ----- ------------  ---------------      ----- ------------  ---------------
    39      2.677033  1 Br dxy               45     -1.622370  1 Br dxy        
    90      1.383617  2 H  dxy               15      1.302106  1 Br py         
    42     -1.192128  1 Br dyz               12      0.759646  1 Br py         
    48      0.722469  1 Br dyz               78     -0.656259  2 H  py         
    64     -0.646059  1 Br fxyz              93     -0.616148  2 H  dyz        

 Vector   39  Occ=0.000000D+00  E= 4.902839D-01
              MO Center=  4.4D-01,  1.2D-02, -2.0D-01, r^2= 7.6D+00
   Bfn.  Coefficient  Atom+Function         Bfn.  Coefficient  Atom+Function  
  ----- ------------  ---------------      ----- ------------  ---------------
    72    191.196809  2 H  s                  6   -143.686673  1 Br s          
    20    -70.090146  1 Br px                80    -35.820771  2 H  px         
    22     31.224137  1 Br pz                44    -31.077596  1 Br dxx        
    49    -18.452064  1 Br dzz               82     15.957631  2 H  pz         
    47    -15.336624  1 Br dyy               46     14.034162  1 Br dxz        

 Vector   40  Occ=0.000000D+00  E= 5.426149D-01
              MO Center=  3.5D-02,  9.1D-04, -1.6D-02, r^2= 3.4D+00
   Bfn.  Coefficient  Atom+Function         Bfn.  Coefficient  Atom+Function  
  ----- ------------  ---------------      ----- ------------  ---------------
    41      0.953241  1 Br dyy               47     -0.946481  1 Br dyy        
    43     -0.795747  1 Br dzz               49      0.790104  1 Br dzz        
    40     -0.709462  1 Br dxz               46      0.704431  1 Br dxz        
    92      0.302669  2 H  dyy               94     -0.252662  2 H  dzz        
    91     -0.225265  2 H  dxz               29     -0.172869  1 Br dyy        

 Vector   41  Occ=0.000000D+00  E= 5.426151D-01
              MO Center=  3.5D-02,  9.1D-04, -1.6D-02, r^2= 3.4D+00
   Bfn.  Coefficient  Atom+Function         Bfn.  Coefficient  Atom+Function  
  ----- ------------  ---------------      ----- ------------  ---------------
    42      1.741965  1 Br dyz               48     -1.729619  1 Br dyz        
    39      0.776020  1 Br dxy               45     -0.770520  1 Br dxy        
    93      0.553116  2 H  dyz               30     -0.315908  1 Br dyz        
    90      0.246405  2 H  dxy               64     -0.210864  1 Br fxyz       
    36      0.173738  1 Br dyz               27     -0.140732  1 Br dxy        

 Vector   42  Occ=0.000000D+00  E= 6.758242D-01
              MO Center=  2.9D-01,  7.4D-03, -1.3D-01, r^2= 6.5D+00
   Bfn.  Coefficient  Atom+Function         Bfn.  Coefficient  Atom+Function  
  ----- ------------  ---------------      ----- ------------  ---------------
    72     37.520087  2 H  s                 20    -12.299679  1 Br px         
    44     -9.325862  1 Br dxx                6     -8.704063  1 Br s          
    49     -5.940697  1 Br dzz               22      5.479327  1 Br pz         
    47     -5.105383  1 Br dyy               71     -5.074996  2 H  s          
    80     -4.169774  2 H  px                46      3.762848  1 Br dxz        

 Vector   43  Occ=0.000000D+00  E= 6.770090D-01
              MO Center=  4.2D-01,  1.1D-02, -1.9D-01, r^2= 2.7D+00
   Bfn.  Coefficient  Atom+Function         Bfn.  Coefficient  Atom+Function  
  ----- ------------  ---------------      ----- ------------  ---------------
    63      0.885782  1 Br fxyy              92      0.659012  2 H  dyy        
    62     -0.594725  1 Br fxxz              94     -0.550130  2 H  dzz        
    41     -0.534000  1 Br dyy               91     -0.490479  2 H  dxz        
    43      0.445773  1 Br dzz               65     -0.446245  1 Br fxzz       
    40      0.397437  1 Br dxz               67     -0.394603  1 Br fyyz       

 Vector   44  Occ=0.000000D+00  E= 6.770105D-01
              MO Center=  4.2D-01,  1.1D-02, -1.9D-01, r^2= 2.7D+00
   Bfn.  Coefficient  Atom+Function         Bfn.  Coefficient  Atom+Function  
  ----- ------------  ---------------      ----- ------------  ---------------
    64      1.298177  1 Br fxyz              93      1.204297  2 H  dyz        
    42     -0.975859  1 Br dyz               61      0.721507  1 Br fxxy       
    68     -0.721507  1 Br fyzz              90      0.536497  2 H  dxy        
    39     -0.434731  1 Br dxy               54     -0.120213  1 Br fxyz       
    30      0.071203  1 Br dyz               51     -0.066812  1 Br fxxy       

 Vector   45  Occ=0.000000D+00  E= 7.305002D-01
              MO Center= -1.1D-11,  6.8D-12,  2.2D-11, r^2= 2.6D+00
   Bfn.  Coefficient  Atom+Function         Bfn.  Coefficient  Atom+Function  
  ----- ------------  ---------------      ----- ------------  ---------------
    68      1.613954  1 Br fyzz              67      1.586963  1 Br fyyz       
    64      1.355764  1 Br fxyz              63      0.756088  1 Br fxyy       
    66     -0.632122  1 Br fyyy              65     -0.618266  1 Br fxzz       
    69     -0.431327  1 Br fzzz              62     -0.292976  1 Br fxxz       
    61      0.282418  1 Br fxxy              58     -0.192726  1 Br fyzz       

 Vector   46  Occ=0.000000D+00  E= 7.305002D-01
              MO Center= -1.5D-11,  6.6D-12,  1.4D-11, r^2= 2.6D+00
   Bfn.  Coefficient  Atom+Function         Bfn.  Coefficient  Atom+Function  
  ----- ------------  ---------------      ----- ------------  ---------------
    67      1.749643  1 Br fyyz              68     -1.433187  1 Br fyzz       
    64     -1.367551  1 Br fxyz              63      0.733936  1 Br fxyy       
    65     -0.625991  1 Br fxzz              66      0.585606  1 Br fyyy       
    69     -0.496163  1 Br fzzz              61     -0.323636  1 Br fxxy       
    62     -0.261148  1 Br fxxz              57     -0.208931  1 Br fyyz       

 Vector   47  Occ=0.000000D+00  E= 7.772970D-01
              MO Center=  4.3D-01,  1.1D-02, -1.9D-01, r^2= 4.3D+00
   Bfn.  Coefficient  Atom+Function         Bfn.  Coefficient  Atom+Function  
  ----- ------------  ---------------      ----- ------------  ---------------
    81      3.592277  2 H  py                45     -2.884813  1 Br dxy        
    61     -2.574792  1 Br fxxy              21     -1.893074  1 Br py         
    82      1.889791  2 H  pz                90     -1.815711  2 H  dxy        
    64      1.730135  1 Br fxyz              46     -1.243010  1 Br dxz        
    48      1.239143  1 Br dyz               22     -0.995892  1 Br pz         

 Vector   48  Occ=0.000000D+00  E= 7.772970D-01
              MO Center=  4.3D-01,  1.1D-02, -1.9D-01, r^2= 4.3D+00
   Bfn.  Coefficient  Atom+Function         Bfn.  Coefficient  Atom+Function  
  ----- ------------  ---------------      ----- ------------  ---------------
    82      3.262765  2 H  pz                46     -2.070206  1 Br dxz        
    81     -2.030401  2 H  py                22     -1.719426  1 Br pz         
    45      1.590617  1 Br dxy               62     -1.574958  1 Br fxxz       
    80      1.506104  2 H  px                61      1.399883  1 Br fxxy       
    91     -1.302995  2 H  dxz               65      1.210963  1 Br fxzz       

 Vector   49  Occ=0.000000D+00  E= 7.824650D-01
              MO Center=  1.0D+00,  2.6D-02, -4.6D-01, r^2= 6.3D+00
   Bfn.  Coefficient  Atom+Function         Bfn.  Coefficient  Atom+Function  
  ----- ------------  ---------------      ----- ------------  ---------------
     6     59.635889  1 Br s                 72    -52.925207  2 H  s          
    20     15.096483  1 Br px                 7     10.766084  1 Br s          
    80     10.757402  2 H  px                71     -7.471222  2 H  s          
    22     -6.725263  1 Br pz                41     -5.720880  1 Br dyy        
    43     -5.075499  1 Br dzz               82     -4.792266  2 H  pz         

 Vector   50  Occ=0.000000D+00  E= 8.540653D-01
              MO Center=  1.5D-02,  3.8D-04, -6.6D-03, r^2= 4.6D+00
   Bfn.  Coefficient  Atom+Function         Bfn.  Coefficient  Atom+Function  
  ----- ------------  ---------------      ----- ------------  ---------------
     6     56.818322  1 Br s                 72    -50.338350  2 H  s          
    20     21.045203  1 Br px                71    -13.306708  2 H  s          
    22     -9.375331  1 Br pz                80      8.356352  2 H  px         
    44      6.594936  1 Br dxx               46     -6.370636  1 Br dxz        
     7      5.396519  1 Br s                 62     -4.111280  1 Br fxxz       

 Vector   51  Occ=0.000000D+00  E= 9.069150D-01
              MO Center=  6.2D-02,  1.6D-03, -2.8D-02, r^2= 4.7D+00
   Bfn.  Coefficient  Atom+Function         Bfn.  Coefficient  Atom+Function  
  ----- ------------  ---------------      ----- ------------  ---------------
    16      8.095529  1 Br pz                22      4.749482  1 Br pz         
    67     -4.657031  1 Br fyyz              69     -4.405639  1 Br fzzz       
    13      4.250601  1 Br pz                62     -3.882580  1 Br fxxz       
    14      3.664663  1 Br px                65     -3.164616  1 Br fxzz       
    52     -2.447439  1 Br fxxz              59     -2.395989  1 Br fzzz       

 Vector   52  Occ=0.000000D+00  E= 9.069150D-01
              MO Center=  6.2D-02,  1.6D-03, -2.8D-02, r^2= 4.7D+00
   Bfn.  Coefficient  Atom+Function         Bfn.  Coefficient  Atom+Function  
  ----- ------------  ---------------      ----- ------------  ---------------
    15      8.883712  1 Br py                21      5.211893  1 Br py         
    66     -5.119657  1 Br fyyy              68     -4.842601  1 Br fyzz       
    12      4.664441  1 Br py                61     -3.673178  1 Br fxxy       
    51     -2.743502  1 Br fxxy              58     -2.628469  1 Br fyzz       
    56     -2.601221  1 Br fyyy              18     -2.473874  1 Br py         

 Vector   53  Occ=0.000000D+00  E= 9.705888D-01
              MO Center=  9.2D-02,  2.4D-03, -4.1D-02, r^2= 4.5D+00
   Bfn.  Coefficient  Atom+Function         Bfn.  Coefficient  Atom+Function  
  ----- ------------  ---------------      ----- ------------  ---------------
    72     20.185281  2 H  s                  6    -14.950659  1 Br s          
    20    -10.465699  1 Br px                14     -8.251502  1 Br px         
    60      4.836799  1 Br fxxx              22      4.662316  1 Br pz         
    65      4.410996  1 Br fxzz              11     -4.345952  1 Br px         
    63      3.786584  1 Br fxyy              16      3.675924  1 Br pz         

 Vector   54  Occ=0.000000D+00  E= 1.001074D+00
              MO Center=  5.3D-01,  1.4D-02, -2.4D-01, r^2= 3.6D+00
   Bfn.  Coefficient  Atom+Function         Bfn.  Coefficient  Atom+Function  
  ----- ------------  ---------------      ----- ------------  ---------------
    16      4.534822  1 Br pz                13      2.424249  1 Br pz         
    62     -2.323050  1 Br fxxz              14      2.067902  1 Br px         
    91      2.024015  2 H  dxz               22      1.911660  1 Br pz         
    15     -1.841798  1 Br py                60     -1.465031  1 Br fxxx       
    69     -1.457507  1 Br fzzz              65      1.286446  1 Br fxzz       

 Vector   55  Occ=0.000000D+00  E= 1.001074D+00
              MO Center=  5.3D-01,  1.4D-02, -2.4D-01, r^2= 3.6D+00
   Bfn.  Coefficient  Atom+Function         Bfn.  Coefficient  Atom+Function  
  ----- ------------  ---------------      ----- ------------  ---------------
    15      4.982473  1 Br py                61     -3.545953  1 Br fxxy       
    90      2.800047  2 H  dxy               12      2.663556  1 Br py         
    21      2.100368  1 Br py                64      2.107537  1 Br fxyz       
    16      1.730848  1 Br pz                68     -1.582089  1 Br fyzz       
    81     -1.378517  2 H  py                93     -1.218120  2 H  dyz        

 Vector   56  Occ=0.000000D+00  E= 1.013335D+00
              MO Center=  4.1D-01,  1.1D-02, -1.8D-01, r^2= 3.3D+00
   Bfn.  Coefficient  Atom+Function         Bfn.  Coefficient  Atom+Function  
  ----- ------------  ---------------      ----- ------------  ---------------
    64      4.421855  1 Br fxyz              93     -3.276878  2 H  dyz        
    61      2.457604  1 Br fxxy              68     -2.457599  1 Br fyzz       
    42      1.711937  1 Br dyz               90     -1.459803  2 H  dxy        
    39      0.762644  1 Br dxy               48      0.595019  1 Br dyz        
    54     -0.408101  1 Br fxyz              45      0.265073  1 Br dxy        

 Vector   57  Occ=0.000000D+00  E= 1.013336D+00
              MO Center=  4.1D-01,  1.1D-02, -1.8D-01, r^2= 3.3D+00
   Bfn.  Coefficient  Atom+Function         Bfn.  Coefficient  Atom+Function  
  ----- ------------  ---------------      ----- ------------  ---------------
    63      3.017137  1 Br fxyy              62     -2.025745  1 Br fxxz       
    92     -1.793166  2 H  dyy               65     -1.519988  1 Br fxzz       
    94      1.496899  2 H  dzz               67     -1.344087  1 Br fyyz       
    91      1.334590  2 H  dxz               69      1.123277  1 Br fzzz       
    41      0.936800  1 Br dyy               43     -0.782022  1 Br dzz        

 Vector   58  Occ=0.000000D+00  E= 1.190809D+00
              MO Center=  5.2D-01,  1.4D-02, -2.3D-01, r^2= 4.2D+00
   Bfn.  Coefficient  Atom+Function         Bfn.  Coefficient  Atom+Function  
  ----- ------------  ---------------      ----- ------------  ---------------
    72    137.455553  2 H  s                  6    -96.363623  1 Br s          
    20    -49.780699  1 Br px                80    -25.370240  2 H  px         
    22     22.176575  1 Br pz                44    -21.467624  1 Br dxx        
    49    -12.938593  1 Br dzz               71    -12.893035  2 H  s          
    82     11.302072  2 H  pz                47    -10.833994  1 Br dyy        

 Vector   59  Occ=0.000000D+00  E= 1.435657D+00
              MO Center=  5.8D-01,  1.5D-02, -2.6D-01, r^2= 2.5D+00
   Bfn.  Coefficient  Atom+Function         Bfn.  Coefficient  Atom+Function  
  ----- ------------  ---------------      ----- ------------  ---------------
    79     -3.570812  2 H  pz                40      3.522671  1 Br dxz        
    65     -2.856400  1 Br fxzz              16      2.486588  1 Br pz         
    39      2.334308  1 Br dxy               43     -1.943191  1 Br dzz        
    38      1.883994  1 Br dxx               78     -1.870975  2 H  py         
    91      1.574952  2 H  dxz               77     -1.542284  2 H  px         

 Vector   60  Occ=0.000000D+00  E= 1.435657D+00
              MO Center=  5.8D-01,  1.5D-02, -2.6D-01, r^2= 2.5D+00
   Bfn.  Coefficient  Atom+Function         Bfn.  Coefficient  Atom+Function  
  ----- ------------  ---------------      ----- ------------  ---------------
    39      4.723045  1 Br dxy               78     -3.888305  2 H  py         
    64     -3.216858  1 Br fxyz              61      2.904092  1 Br fxxy       
    15      2.707679  1 Br py                42     -2.168872  1 Br dyz        
    90      2.111628  2 H  dxy               79      1.672100  2 H  pz         
    81     -1.674727  2 H  py                40     -1.582395  1 Br dxz        

 Vector   61  Occ=0.000000D+00  E= 1.437299D+00
              MO Center=  2.7D-01,  6.9D-03, -1.2D-01, r^2= 3.6D+00
   Bfn.  Coefficient  Atom+Function         Bfn.  Coefficient  Atom+Function  
  ----- ------------  ---------------      ----- ------------  ---------------
     6     48.003423  1 Br s                 72    -39.839908  2 H  s          
    71    -26.468762  2 H  s                 20     15.109187  1 Br px         
    40    -10.283217  1 Br dxz               62     -9.413034  1 Br fxxz       
    60      7.460608  1 Br fxxx              38      7.172567  1 Br dxx        
    22     -6.730923  1 Br pz                14      5.550214  1 Br px         

 Vector   62  Occ=0.000000D+00  E= 1.511706D+00
              MO Center=  1.8D-01,  4.7D-03, -8.1D-02, r^2= 6.2D+00
   Bfn.  Coefficient  Atom+Function         Bfn.  Coefficient  Atom+Function  
  ----- ------------  ---------------      ----- ------------  ---------------
     6     72.507069  1 Br s                 72    -19.633783  2 H  s          
    41    -16.000819  1 Br dyy               43    -15.107751  1 Br dzz        
    71    -13.636397  2 H  s                  5    -12.939938  1 Br s          
    38    -11.488531  1 Br dxx                7     11.312233  1 Br s          
    47     -7.203950  1 Br dyy               49     -6.913178  1 Br dzz        

 Vector   63  Occ=0.000000D+00  E= 1.886688D+00
              MO Center=  5.4D-03,  1.4D-04, -2.4D-03, r^2= 1.6D+00
   Bfn.  Coefficient  Atom+Function         Bfn.  Coefficient  Atom+Function  
  ----- ------------  ---------------      ----- ------------  ---------------
    41     -1.439791  1 Br dyy               35      1.367678  1 Br dyy        
    43      1.201910  1 Br dzz               37     -1.141711  1 Br dzz        
    40      1.071584  1 Br dxz               34     -1.017913  1 Br dxz        
    47      0.498044  1 Br dyy               49     -0.415757  1 Br dzz        
    29     -0.398097  1 Br dyy               46     -0.370676  1 Br dxz        

 Vector   64  Occ=0.000000D+00  E= 1.886691D+00
              MO Center=  5.4D-03,  1.4D-04, -2.4D-03, r^2= 1.6D+00
   Bfn.  Coefficient  Atom+Function         Bfn.  Coefficient  Atom+Function  
  ----- ------------  ---------------      ----- ------------  ---------------
    42     -2.631152  1 Br dyz               36      2.499346  1 Br dyz        
    39     -1.172140  1 Br dxy               33      1.113422  1 Br dxy        
    48      0.910140  1 Br dyz               30     -0.727495  1 Br dyz        
    45      0.405454  1 Br dxy               93      0.351080  2 H  dyz        
    27     -0.324088  1 Br dxy               54     -0.258911  1 Br fxyz       

 Vector   65  Occ=0.000000D+00  E= 1.918241D+00
              MO Center=  4.5D-01,  1.2D-02, -2.0D-01, r^2= 2.8D+00
   Bfn.  Coefficient  Atom+Function         Bfn.  Coefficient  Atom+Function  
  ----- ------------  ---------------      ----- ------------  ---------------
    71     -6.204829  2 H  s                 14      5.727405  1 Br px         
    38      5.319878  1 Br dxx               20      4.938224  1 Br px         
     7     -3.777827  1 Br s                  5      3.563946  1 Br s          
    44      3.522015  1 Br dxx               72     -3.386594  2 H  s          
    11      3.214317  1 Br px                62     -3.160390  1 Br fxxz       

 Vector   66  Occ=0.000000D+00  E= 1.927449D+00
              MO Center= -1.6D-02, -4.1D-04,  7.0D-03, r^2= 1.5D+00
   Bfn.  Coefficient  Atom+Function         Bfn.  Coefficient  Atom+Function  
  ----- ------------  ---------------      ----- ------------  ---------------
    53      2.562019  1 Br fxyy              63     -2.165181  1 Br fxyy       
    52     -1.720171  1 Br fxxz              62      1.453730  1 Br fxxz       
    55     -1.290711  1 Br fxzz              57     -1.141345  1 Br fyyz       
    65      1.090789  1 Br fxzz              67      0.964559  1 Br fyyz       
    59      0.953839  1 Br fzzz              69     -0.806096  1 Br fzzz       

 Vector   67  Occ=0.000000D+00  E= 1.927450D+00
              MO Center= -1.6D-02, -4.1D-04,  7.0D-03, r^2= 1.5D+00
   Bfn.  Coefficient  Atom+Function         Bfn.  Coefficient  Atom+Function  
  ----- ------------  ---------------      ----- ------------  ---------------
    54      3.754871  1 Br fxyz              64     -3.173250  1 Br fxyz       
    51      2.086898  1 Br fxxy              58     -2.086902  1 Br fyzz       
    61     -1.763642  1 Br fxxy              68      1.763645  1 Br fyzz       
    93      0.554097  2 H  dyz               42     -0.499694  1 Br dyz        
    90      0.246842  2 H  dxy               39     -0.222606  1 Br dxy        

 Vector   68  Occ=0.000000D+00  E= 1.929185D+00
              MO Center= -3.0D-10, -1.5D-10,  2.8D-10, r^2= 1.5D+00
   Bfn.  Coefficient  Atom+Function         Bfn.  Coefficient  Atom+Function  
  ----- ------------  ---------------      ----- ------------  ---------------
    57     -2.117920  1 Br fyyz              58      2.106567  1 Br fyzz       
    54      1.986648  1 Br fxyz              67      1.412252  1 Br fyyz       
    68     -1.404670  1 Br fyzz              64     -1.324768  1 Br fxyz       
    53     -0.876897  1 Br fxyy              56     -0.857204  1 Br fyyy       
    55      0.751221  1 Br fxzz              59      0.602951  1 Br fzzz       

 Vector   69  Occ=0.000000D+00  E= 1.929185D+00
              MO Center= -3.7D-10, -1.9D-10,  1.1D-10, r^2= 1.5D+00
   Bfn.  Coefficient  Atom+Function         Bfn.  Coefficient  Atom+Function  
  ----- ------------  ---------------      ----- ------------  ---------------
    57      2.327828  1 Br fyyz              58      1.957582  1 Br fyzz       
    54      1.623596  1 Br fxyz              67     -1.552221  1 Br fyyz       
    68     -1.305328  1 Br fyzz              53      1.096343  1 Br fxyy       
    64     -1.082672  1 Br fxyz              55     -0.899691  1 Br fxzz       
    56     -0.763556  1 Br fyyy              63     -0.731053  1 Br fxyy       

 Vector   70  Occ=0.000000D+00  E= 1.959817D+00
              MO Center= -4.1D-02, -1.1D-03,  1.8D-02, r^2= 2.0D+00
   Bfn.  Coefficient  Atom+Function         Bfn.  Coefficient  Atom+Function  
  ----- ------------  ---------------      ----- ------------  ---------------
    15      2.312232  1 Br py                16     -2.035131  1 Br pz         
    61     -1.858421  1 Br fxxy              33     -1.587460  1 Br dxy        
    45     -1.589304  1 Br dxy               81      1.496973  2 H  py         
    12      1.345875  1 Br py                82     -1.317574  2 H  pz         
    64      1.192606  1 Br fxyz              13     -1.184584  1 Br pz         

 Vector   71  Occ=0.000000D+00  E= 1.959817D+00
              MO Center= -4.1D-02, -1.1D-03,  1.8D-02, r^2= 2.0D+00
   Bfn.  Coefficient  Atom+Function         Bfn.  Coefficient  Atom+Function  
  ----- ------------  ---------------      ----- ------------  ---------------
    15      2.251682  1 Br py                16      2.134397  1 Br pz         
    61     -1.862613  1 Br fxxy              33     -1.578855  1 Br dxy        
    45     -1.580689  1 Br dxy               81      1.457772  2 H  py         
    82      1.381840  2 H  pz                12      1.310631  1 Br py         
    62     -1.298663  1 Br fxxz              13      1.242364  1 Br pz         

 Vector   72  Occ=0.000000D+00  E= 2.147192D+00
              MO Center=  2.1D-01,  5.5D-03, -9.5D-02, r^2= 2.4D+00
   Bfn.  Coefficient  Atom+Function         Bfn.  Coefficient  Atom+Function  
  ----- ------------  ---------------      ----- ------------  ---------------
    16      8.771725  1 Br pz                15     -7.018268  1 Br py         
    13      5.045337  1 Br pz                14      4.089458  1 Br px         
    12     -4.036780  1 Br py                51      3.959418  1 Br fxxy       
    52     -3.874814  1 Br fxxz              67     -3.686044  1 Br fyyz       
    69     -3.501292  1 Br fzzz              19     -3.401730  1 Br pz         

 Vector   73  Occ=0.000000D+00  E= 2.147192D+00
              MO Center=  2.1D-01,  5.5D-03, -9.5D-02, r^2= 2.4D+00
   Bfn.  Coefficient  Atom+Function         Bfn.  Coefficient  Atom+Function  
  ----- ------------  ---------------      ----- ------------  ---------------
    15      9.674030  1 Br py                16      6.505830  1 Br pz         
    51     -5.594083  1 Br fxxy              12      5.564326  1 Br py         
    66     -4.086217  1 Br fyyy              68     -3.879068  1 Br fyzz       
    13      3.742035  1 Br pz                18     -3.751650  1 Br py         
    58     -3.038439  1 Br fyzz              52     -2.983008  1 Br fxxz       

 Vector   74  Occ=0.000000D+00  E= 2.260155D+00
              MO Center=  4.4D-01,  1.1D-02, -2.0D-01, r^2= 2.4D+00
   Bfn.  Coefficient  Atom+Function         Bfn.  Coefficient  Atom+Function  
  ----- ------------  ---------------      ----- ------------  ---------------
    72     28.217051  2 H  s                  6    -19.180803  1 Br s          
    14     14.789251  1 Br px                71    -13.110527  2 H  s          
    11      8.485785  1 Br px                20     -7.551714  1 Br px         
    38      7.452741  1 Br dxx               40     -6.882228  1 Br dxz        
    16     -6.588396  1 Br pz                80     -6.095496  2 H  px         

 Vector   75  Occ=0.000000D+00  E= 2.321208D+00
              MO Center=  4.1D-02,  1.1D-03, -1.8D-02, r^2= 3.0D+00
   Bfn.  Coefficient  Atom+Function         Bfn.  Coefficient  Atom+Function  
  ----- ------------  ---------------      ----- ------------  ---------------
    16     19.171003  1 Br pz                15    -11.897139  1 Br py         
    13     10.965254  1 Br pz                14      8.848553  1 Br px         
    12     -6.804816  1 Br py                19     -5.889689  1 Br pz         
    62     -5.438850  1 Br fxxz              67     -5.452989  1 Br fyyz       
    69     -5.448470  1 Br fzzz              57     -5.252226  1 Br fyyz       

 Vector   76  Occ=0.000000D+00  E= 2.321208D+00
              MO Center=  4.1D-02,  1.1D-03, -1.8D-02, r^2= 3.0D+00
   Bfn.  Coefficient  Atom+Function         Bfn.  Coefficient  Atom+Function  
  ----- ------------  ---------------      ----- ------------  ---------------
    15     21.106768  1 Br py                12     12.072454  1 Br py         
    16     11.073796  1 Br pz                18     -6.484392  1 Br py         
    13      6.333888  1 Br pz                61     -5.976578  1 Br fxxy       
    66     -6.003989  1 Br fyyy              68     -5.998947  1 Br fyzz       
    56     -5.811123  1 Br fyyy              58     -5.440792  1 Br fyzz       

 Vector   77  Occ=0.000000D+00  E= 2.351127D+00
              MO Center= -3.1D-01, -7.9D-03,  1.4D-01, r^2= 3.2D+00
   Bfn.  Coefficient  Atom+Function         Bfn.  Coefficient  Atom+Function  
  ----- ------------  ---------------      ----- ------------  ---------------
    72    -80.933955  2 H  s                  6     78.287554  1 Br s          
    20     31.698363  1 Br px                14     16.036316  1 Br px         
    71     15.774670  2 H  s                 22    -14.121158  1 Br pz         
    80     13.806548  2 H  px                38    -13.383143  1 Br dxx        
    60    -10.657665  1 Br fxxx              65    -10.290042  1 Br fxzz       

 Vector   78  Occ=0.000000D+00  E= 2.927374D+00
              MO Center= -1.2D-01, -3.2D-03,  5.5D-02, r^2= 3.1D+00
   Bfn.  Coefficient  Atom+Function         Bfn.  Coefficient  Atom+Function  
  ----- ------------  ---------------      ----- ------------  ---------------
     6     43.810439  1 Br s                  5    -21.448355  1 Br s          
    38    -19.293602  1 Br dxx               43    -15.937443  1 Br dzz        
    14    -15.231205  1 Br px                41    -15.109287  1 Br dyy        
    71     13.715683  2 H  s                 11     -8.598027  1 Br px         
     7      8.100859  1 Br s                 16      6.785280  1 Br pz         

 Vector   79  Occ=0.000000D+00  E= 3.439144D+00
              MO Center=  6.7D-01,  1.7D-02, -3.0D-01, r^2= 1.9D+00
   Bfn.  Coefficient  Atom+Function         Bfn.  Coefficient  Atom+Function  
  ----- ------------  ---------------      ----- ------------  ---------------
    72     42.602193  2 H  s                  6    -24.989146  1 Br s          
    20    -13.642429  1 Br px                71     11.299650  2 H  s          
    80     -7.124321  2 H  px                44     -6.940672  1 Br dxx        
    22      6.077503  1 Br pz                38     -5.746781  1 Br dxx        
    14      4.936653  1 Br px                53     -4.508265  1 Br fxyy       

 Vector   80  Occ=0.000000D+00  E= 3.596920D+00
              MO Center=  8.4D-01,  2.2D-02, -3.8D-01, r^2= 8.3D-01
   Bfn.  Coefficient  Atom+Function         Bfn.  Coefficient  Atom+Function  
  ----- ------------  ---------------      ----- ------------  ---------------
    87     -1.926569  2 H  dyz               54      1.828709  1 Br fxyz       
    64     -1.556388  1 Br fxyz              93      1.279815  2 H  dyz        
    51      1.016369  1 Br fxxy              58     -1.016369  1 Br fyzz       
    61     -0.865017  1 Br fxxy              68      0.865017  1 Br fyzz       
    84     -0.858258  2 H  dxy               90      0.570139  2 H  dxy        

 Vector   81  Occ=0.000000D+00  E= 3.596920D+00
              MO Center=  8.4D-01,  2.2D-02, -3.8D-01, r^2= 8.3D-01
   Bfn.  Coefficient  Atom+Function         Bfn.  Coefficient  Atom+Function  
  ----- ------------  ---------------      ----- ------------  ---------------
    53      1.247769  1 Br fxyy              63     -1.061958  1 Br fxyy       
    86     -1.054252  2 H  dyy               88      0.880069  2 H  dzz        
    52     -0.837768  1 Br fxxz              85      0.784641  2 H  dxz        
    62      0.713012  1 Br fxxz              92      0.700336  2 H  dyy        
    55     -0.628608  1 Br fxzz              94     -0.584627  2 H  dzz        

 Vector   82  Occ=0.000000D+00  E= 4.183995D+00
              MO Center=  7.2D-01,  1.9D-02, -3.2D-01, r^2= 1.4D+00
   Bfn.  Coefficient  Atom+Function         Bfn.  Coefficient  Atom+Function  
  ----- ------------  ---------------      ----- ------------  ---------------
    16    -11.482094  1 Br pz                15     10.715794  1 Br py         
    13     -6.096704  1 Br pz                12      5.689818  1 Br py         
    14     -5.392659  1 Br px                52      4.647564  1 Br fxxz       
    57      4.658792  1 Br fyyz              59      4.655255  1 Br fzzz       
    51     -4.330040  1 Br fxxy              56     -4.348275  1 Br fyyy       

 Vector   83  Occ=0.000000D+00  E= 4.183995D+00
              MO Center=  7.2D-01,  1.9D-02, -3.2D-01, r^2= 1.4D+00
   Bfn.  Coefficient  Atom+Function         Bfn.  Coefficient  Atom+Function  
  ----- ------------  ---------------      ----- ------------  ---------------
    15     12.679312  1 Br py                16      9.913245  1 Br pz         
    12      6.732397  1 Br py                13      5.263685  1 Br pz         
    51     -5.122511  1 Br fxxy              56     -5.145035  1 Br fyyy       
    58     -5.141050  1 Br fyzz              61     -4.856648  1 Br fxxy       
    14      4.087795  1 Br px                52     -4.011662  1 Br fxxz       

 Vector   84  Occ=0.000000D+00  E= 4.360316D+00
              MO Center=  7.1D-01,  1.8D-02, -3.2D-01, r^2= 1.0D+00
   Bfn.  Coefficient  Atom+Function         Bfn.  Coefficient  Atom+Function  
  ----- ------------  ---------------      ----- ------------  ---------------
    16      8.161061  1 Br pz                15     -4.586297  1 Br py         
    13      4.287253  1 Br pz                14      3.754409  1 Br px         
    55     -3.409703  1 Br fxzz              57     -3.067524  1 Br fyyz       
    59     -2.609230  1 Br fzzz              12     -2.409321  1 Br py         
    11      1.972305  1 Br px                62     -1.863207  1 Br fxxz       

 Vector   85  Occ=0.000000D+00  E= 4.360316D+00
              MO Center=  7.1D-01,  1.8D-02, -3.2D-01, r^2= 1.0D+00
   Bfn.  Coefficient  Atom+Function         Bfn.  Coefficient  Atom+Function  
  ----- ------------  ---------------      ----- ------------  ---------------
    15      8.980065  1 Br py                12      4.717501  1 Br py         
    16      4.277015  1 Br pz                56     -3.410754  1 Br fyyy       
    58     -2.901069  1 Br fyzz              54     -2.375485  1 Br fxyz       
    84      2.333489  2 H  dxy               13      2.246846  1 Br pz         
    61     -2.192110  1 Br fxxy              68     -1.913981  1 Br fyzz       

 Vector   86  Occ=0.000000D+00  E= 4.362990D+00
              MO Center=  4.8D-01,  1.3D-02, -2.2D-01, r^2= 2.1D+00
   Bfn.  Coefficient  Atom+Function         Bfn.  Coefficient  Atom+Function  
  ----- ------------  ---------------      ----- ------------  ---------------
    72     30.509970  2 H  s                 14    -27.267494  1 Br px         
     6    -22.538786  1 Br s                 11    -14.714333  1 Br px         
    20    -13.938877  1 Br px                16     12.147270  1 Br pz         
    50     10.135346  1 Br fxxx              53     10.090221  1 Br fxyy       
    55     10.117051  1 Br fxzz              63      8.653775  1 Br fxyy       

 Vector   87  Occ=0.000000D+00  E= 4.425855D+00
              MO Center=  2.2D-01,  5.7D-03, -9.8D-02, r^2= 2.2D+00
   Bfn.  Coefficient  Atom+Function         Bfn.  Coefficient  Atom+Function  
  ----- ------------  ---------------      ----- ------------  ---------------
    16     27.057359  1 Br pz                15    -18.607204  1 Br py         
    13     14.553383  1 Br pz                14     12.535613  1 Br px         
    12    -10.008285  1 Br py                52     -9.709137  1 Br fxxz       
    59     -9.374507  1 Br fzzz              57     -9.217918  1 Br fyyz       
    51      6.900610  1 Br fxxy              11      6.742550  1 Br px         

 Vector   88  Occ=0.000000D+00  E= 4.425855D+00
              MO Center=  2.2D-01,  5.7D-03, -9.8D-02, r^2= 2.2D+00
   Bfn.  Coefficient  Atom+Function         Bfn.  Coefficient  Atom+Function  
  ----- ------------  ---------------      ----- ------------  ---------------
    15     29.808574  1 Br py                16     17.288658  1 Br pz         
    12     16.033184  1 Br py                51    -11.099230  1 Br fxxy       
    58    -10.315021  1 Br fyzz              56    -10.140156  1 Br fyyy       
    13      9.299077  1 Br pz                66     -7.336722  1 Br fyyy       
    68     -7.071546  1 Br fyzz              14      6.929759  1 Br px         

 Vector   89  Occ=0.000000D+00  E= 4.585692D+00
              MO Center=  8.6D-01,  2.2D-02, -3.8D-01, r^2= 1.2D+00
   Bfn.  Coefficient  Atom+Function         Bfn.  Coefficient  Atom+Function  
  ----- ------------  ---------------      ----- ------------  ---------------
    14     10.584078  1 Br px                11      5.877633  1 Br px         
    16     -4.715052  1 Br pz                50     -3.694878  1 Br fxxx       
    55     -3.221606  1 Br fxzz              38      2.825281  1 Br dxx        
    52      2.688135  1 Br fxxz              13     -2.618400  1 Br pz         
    53     -2.527586  1 Br fxyy              20      2.472817  1 Br px         

 Vector   90  Occ=0.000000D+00  E= 5.019668D+00
              MO Center=  5.2D-01,  1.3D-02, -2.3D-01, r^2= 1.4D+00
   Bfn.  Coefficient  Atom+Function         Bfn.  Coefficient  Atom+Function  
  ----- ------------  ---------------      ----- ------------  ---------------
    72     33.627665  2 H  s                 14    -24.992791  1 Br px         
     6    -19.484079  1 Br s                 11    -13.313316  1 Br px         
    20    -13.321929  1 Br px                16     11.133924  1 Br pz         
    50      8.428571  1 Br fxxx              55      8.340737  1 Br fxzz       
    53      8.211935  1 Br fxyy              63      6.482319  1 Br fxyy       

 Vector   91  Occ=0.000000D+00  E= 5.945345D+00
              MO Center=  5.5D-04,  1.4D-05, -2.5D-04, r^2= 1.8D+00
   Bfn.  Coefficient  Atom+Function         Bfn.  Coefficient  Atom+Function  
  ----- ------------  ---------------      ----- ------------  ---------------
     6     41.525352  1 Br s                 71     20.298892  2 H  s          
    38    -19.196289  1 Br dxx               14    -17.800897  1 Br px         
     5    -16.607259  1 Br s                 43    -14.516476  1 Br dzz        
    41    -13.361698  1 Br dyy                4     11.437515  1 Br s          
    32     -9.816386  1 Br dxx               11     -9.659285  1 Br px         

 Vector   92  Occ=0.000000D+00  E= 7.513814D+00
              MO Center=  6.9D-01,  1.8D-02, -3.1D-01, r^2= 2.0D+00
   Bfn.  Coefficient  Atom+Function         Bfn.  Coefficient  Atom+Function  
  ----- ------------  ---------------      ----- ------------  ---------------
    72     70.559317  2 H  s                  6    -41.452884  1 Br s          
    20    -25.683792  1 Br px                14    -21.328132  1 Br px         
    71     16.620821  2 H  s                 11    -11.947441  1 Br px         
    44    -11.586094  1 Br dxx               22     11.441755  1 Br pz         
    80    -11.401028  2 H  px                16      9.501372  1 Br pz         

 Vector   93  Occ=0.000000D+00  E= 1.918811D+01
              MO Center=  1.4D-01,  3.7D-03, -6.4D-02, r^2= 2.8D+00
   Bfn.  Coefficient  Atom+Function         Bfn.  Coefficient  Atom+Function  
  ----- ------------  ---------------      ----- ------------  ---------------
     4     67.759258  1 Br s                  3     55.277740  1 Br s          
    71    -49.687059  2 H  s                  6     42.951052  1 Br s          
    14     30.808706  1 Br px                72    -18.031646  2 H  s          
    11     17.038744  1 Br px                41    -15.356436  1 Br dyy        
     2     15.241421  1 Br s                 77     15.263502  2 H  px         

 Vector   94  Occ=0.000000D+00  E= 7.833406D+01
              MO Center= -2.6D-04, -6.8D-06,  1.2D-04, r^2= 7.6D-02
   Bfn.  Coefficient  Atom+Function         Bfn.  Coefficient  Atom+Function  
  ----- ------------  ---------------      ----- ------------  ---------------
     3     31.450958  1 Br s                  2     16.727915  1 Br s          
    26    -16.203033  1 Br dxx               29    -16.187622  1 Br dyy        
    31    -16.190673  1 Br dzz                5     13.282463  1 Br s          
     4     10.963155  1 Br s                 71     -6.198122  2 H  s          
    35     -4.975087  1 Br dyy               37     -4.904084  1 Br dzz        


 center of mass
 --------------
 x =   0.02149176 y =   0.00055667 z =  -0.00957427

 moments of inertia (a.u.)
 ------------------
           0.590210863818          -0.076771083337           1.320407742717
[...]
   Bfn.  Coefficient  Atom+Function         Bfn.  Coefficient  Atom+Function  
  ----- ------------  ---------------      ----- ------------  ---------------
    61      2.496964  1 Br fxxy              78     -2.027246  2 H  py         
    64     -1.800065  1 Br fxyz              39      1.708453  1 Br dxy        
    75      1.454248  2 H  py                90      1.450969  2 H  dxy        
    15     -1.389291  1 Br py                68      0.884417  1 Br fyzz       
    12     -0.778898  1 Br py                42     -0.763246  1 Br dyz        

 Vector   86  Occ=0.000000D+00  E= 4.000879D+00
              MO Center=  6.4D-01,  1.6D-02, -2.8D-01, r^2= 1.5D+00
   Bfn.  Coefficient  Atom+Function         Bfn.  Coefficient  Atom+Function  
  ----- ------------  ---------------      ----- ------------  ---------------
    14     15.813477  1 Br px                11      8.373748  1 Br px         
    16     -7.044673  1 Br pz                53     -6.388225  1 Br fxyy       
    55     -6.014831  1 Br fxzz              50     -5.760203  1 Br fxxx       
    60     -4.601086  1 Br fxxx              65     -4.405205  1 Br fxzz       
    63     -4.117960  1 Br fxyy              17     -3.761242  1 Br px         

 Vector   87  Occ=0.000000D+00  E= 4.353137D+00
              MO Center= -1.9D-01, -4.9D-03,  8.4D-02, r^2= 2.4D+00
   Bfn.  Coefficient  Atom+Function         Bfn.  Coefficient  Atom+Function  
  ----- ------------  ---------------      ----- ------------  ---------------
    16     34.740179  1 Br pz                13     18.575491  1 Br pz         
    14     15.304488  1 Br px                52    -12.607259  1 Br fxxz       
    57    -12.510057  1 Br fyyz              59    -12.542202  1 Br fzzz       
    67     -8.608710  1 Br fyyz              69     -8.561660  1 Br fzzz       
    62     -8.466475  1 Br fxxz              11      8.183273  1 Br px         

 Vector   88  Occ=0.000000D+00  E= 4.353137D+00
              MO Center= -1.9D-01, -4.9D-03,  8.4D-02, r^2= 2.4D+00
   Bfn.  Coefficient  Atom+Function         Bfn.  Coefficient  Atom+Function  
  ----- ------------  ---------------      ----- ------------  ---------------
    15     37.950975  1 Br py                12     20.292296  1 Br py         
    51    -13.839828  1 Br fxxy              56    -13.667026  1 Br fyyy       
    58    -13.702005  1 Br fyzz              66     -9.403235  1 Br fyyy       
    68     -9.352074  1 Br fyzz              61     -9.150413  1 Br fxxy       
    18     -8.739471  1 Br py                16     -5.693483  1 Br pz         

 Vector   89  Occ=0.000000D+00  E= 4.371814D+00
              MO Center=  4.4D-01,  1.1D-02, -1.9D-01, r^2= 2.3D+00
   Bfn.  Coefficient  Atom+Function         Bfn.  Coefficient  Atom+Function  
  ----- ------------  ---------------      ----- ------------  ---------------
    14     17.386264  1 Br px                11      9.484334  1 Br px         
    72     -8.628073  2 H  s                 16     -7.745324  1 Br pz         
    50     -6.612111  1 Br fxxx              55     -6.544588  1 Br fxzz       
    53     -6.445570  1 Br fxyy              60     -6.424055  1 Br fxxx       
    65     -6.082996  1 Br fxzz              20      5.833967  1 Br px         

 Vector   90  Occ=0.000000D+00  E= 4.847691D+00
              MO Center=  3.4D-01,  8.7D-03, -1.5D-01, r^2= 2.6D+00
   Bfn.  Coefficient  Atom+Function         Bfn.  Coefficient  Atom+Function  
  ----- ------------  ---------------      ----- ------------  ---------------
    14     34.531245  1 Br px                11     18.645982  1 Br px         
    16    -15.383166  1 Br pz                50    -12.044818  1 Br fxxx       
    55    -11.855478  1 Br fxzz              53    -11.577824  1 Br fxyy       
    63     -9.229952  1 Br fxyy              65     -8.821810  1 Br fxzz       
    60     -8.543486  1 Br fxxx              13     -8.306513  1 Br pz         

 Vector   91  Occ=0.000000D+00  E= 5.247688D+00
              MO Center=  6.7D-01,  1.7D-02, -3.0D-01, r^2= 1.4D+00
   Bfn.  Coefficient  Atom+Function         Bfn.  Coefficient  Atom+Function  
  ----- ------------  ---------------      ----- ------------  ---------------
     6      8.982752  1 Br s                 72     -8.214375  2 H  s          
    14      5.926108  1 Br px                50     -3.755362  1 Br fxxx       
    20      3.669677  1 Br px                52      3.269463  1 Br fxxz       
    11      3.190221  1 Br px                55     -3.030321  1 Br fxzz       
    16     -2.639995  1 Br pz                38     -2.644426  1 Br dxx        

 Vector   92  Occ=0.000000D+00  E= 5.729176D+00
              MO Center=  7.0D-01,  1.8D-02, -3.1D-01, r^2= 2.0D+00
   Bfn.  Coefficient  Atom+Function         Bfn.  Coefficient  Atom+Function  
  ----- ------------  ---------------      ----- ------------  ---------------
    14     18.916826  1 Br px                72    -17.819448  2 H  s          
    71    -13.111287  2 H  s                 11     10.358807  1 Br px         
    38      9.598362  1 Br dxx               16     -8.427170  1 Br pz         
    20      8.127300  1 Br px                 6     -7.859976  1 Br s          
    43      5.976184  1 Br dzz               77      5.352875  2 H  px         

 Vector   93  Occ=0.000000D+00  E= 1.007842D+01
              MO Center=  1.1D-03,  2.9D-05, -5.0D-04, r^2= 3.4D+00
   Bfn.  Coefficient  Atom+Function         Bfn.  Coefficient  Atom+Function  
  ----- ------------  ---------------      ----- ------------  ---------------
     4     49.212428  1 Br s                  6     40.521212  1 Br s          
     3     38.765617  1 Br s                  5    -19.306777  1 Br s          
    41    -16.896348  1 Br dyy               43    -16.549678  1 Br dzz        
    38    -15.144773  1 Br dxx               35    -13.167704  1 Br dyy        
    37    -13.073912  1 Br dzz               32    -12.693813  1 Br dxx        

 Vector   94  Occ=0.000000D+00  E= 7.772699D+01
              MO Center= -2.0D-01, -5.1D-03,  8.8D-02, r^2= 5.8D-02
   Bfn.  Coefficient  Atom+Function         Bfn.  Coefficient  Atom+Function  
  ----- ------------  ---------------      ----- ------------  ---------------
     3     27.059452  1 Br s                 26    -16.002794  1 Br dxx        
    29    -15.996276  1 Br dyy               31    -15.997566  1 Br dzz        
     2     15.455410  1 Br s                  5     13.201434  1 Br s          
     4      5.801857  1 Br s                 35     -4.166637  1 Br dyy        
    37     -4.158936  1 Br dzz               32     -4.127728  1 Br dxx        


 center of mass
 --------------
 x =  -0.34370113 y =  -0.00890234 z =   0.15311384

 moments of inertia (a.u.)
 ------------------
           1.213769723377          -0.157879873615           2.715420943384
          -0.157879873615           7.305100997470           0.070333180386
           2.715420943384           0.070333180386           6.099509890862

     Multipole analysis of the density
     ---------------------------------

     L   x y z        total         alpha         beta         nuclear
     -   - - -        -----         -----         ----         -------
     0   0 0 0     -0.000000    -18.000000    -18.000000     36.000000

     1   1 0 0      0.296685      5.652355      5.652355    -11.008025
     1   0 1 0      0.007685      0.146404      0.146404     -0.285123
     1   0 0 1     -0.132169     -2.518042     -2.518042      4.903915

     2   2 0 0    -12.541837    -10.931050    -10.931050      9.320262
     2   1 1 0      0.060654     -0.090377     -0.090377      0.241408
     2   1 0 1     -1.043205      1.554418      1.554418     -4.152041
     2   0 2 0    -14.881992     -7.444123     -7.444123      0.006253
     2   0 1 1     -0.027020      0.040262      0.040262     -0.107544
     2   0 0 2    -14.418831     -8.134252     -8.134252      1.849674

 Line search: 
     step= 1.00 grad=-5.1D-09 hess=-3.9D-09 energy=  -2574.417439 mode=accept  
 new step= 1.00                   predicted energy=  -2574.417439

          --------
          Step   5
          --------


                         Geometry "geometry" -> "geometry"
                         ---------------------------------

 Output coordinates in angstroms (scale by  1.889725989 to convert to a.u.)

  No.       Tag          Charge          X              Y              Z
 ---- ---------------- ---------- -------------- -------------- --------------
    1 Br                  35.0000    -0.19818821    -0.00513335     0.08828996
    2 H                    1.0000     1.11139095     0.02878657    -0.49510845

      Atomic Mass 
      ----------- 

      Br                79.916500
      H                  1.007825


 Effective nuclear repulsion energy (a.u.)      12.9153047450

            Nuclear Dipole moment (a.u.) 
            ----------------------------
        X                 Y               Z
 ---------------- ---------------- ----------------
   -11.0080250765    -0.2851231649     4.9039145755


                                 NWChem DFT Module
                                 -----------------




 Summary of "ao basis" -> "ao basis" (cartesian)
 ------------------------------------------------------------------------------
       Tag                 Description            Shells   Functions and Types
 ---------------- ------------------------------  ------  ---------------------
 Br                       aug-cc-pVTZ               19       69   7s6p4d2f
 H                        aug-cc-pVTZ                9       25   4s3p2d



  The DFT is already converged 

         Total DFT energy =  -2574.417438589684


            General Information
            -------------------
          SCF calculation type: DFT
          Wavefunction type:  closed shell.
          No. of atoms     :     2
          No. of electrons :    36
           Alpha electrons :    18
            Beta electrons :    18
          Charge           :     0
          Spin multiplicity:     1
          Use of symmetry is: off; symmetry adaption is: off
          Maximum number of iterations: 200
          AO basis - number of functions:    94
                     number of shells:    28
          Convergence on energy requested:  1.00D-06
          Convergence on density requested:  1.00D-05
          Convergence on gradient requested:  5.00D-04

              XC Information
              --------------
          PerdewBurkeErnzerhof Exchange Functional  1.000          
            Perdew 1991 LDA Correlation Functional  1.000 local    
           PerdewBurkeErnz. Correlation Functional  1.000 non-local

             Grid Information
             ----------------
          Grid used for XC integration:  medium    
          Radial quadrature: Mura-Knowles        
          Angular quadrature: Lebedev. 
          Tag              B.-S. Rad. Rad. Pts. Rad. Cut. Ang. Pts.
          ---              ---------- --------- --------- ---------
          Br                  1.15      112          12.0       590
          H                   0.35       45          12.0       434
          Grid pruning is: on 
          Number of quadrature shells:   157
          Spatial weights used:  Erf1

          Convergence Information
          -----------------------
          Convergence aids based upon iterative change in 
          total energy or number of iterations. 
          Levelshifting, if invoked, occurs when the 
          HOMO/LUMO gap drops below (HL_TOL):  1.00D-02
          DIIS, if invoked, will attempt to extrapolate 
          using up to (NFOCK): 10 stored Fock matrices.

                    Damping(40%)  Levelshifting(0.0)       DIIS
                  --------------- ------------------- ---------------
          dE  on:    start            ASAP                start   
          dE off:  200 iters        200 iters           200 iters 


      Screening Tolerance Information
      -------------------------------
          Density screening/tol_rho:  1.00D-10
          AO Gaussian exp screening on grid/accAOfunc:  14
          CD Gaussian exp screening on grid/accCDfunc:  20
          XC Gaussian exp screening on grid/accXCfunc:  20
          Schwarz screening/accCoul:  1.00D-08



                            NWChem DFT Gradient Module
                            --------------------------



  charge          =   0.00
  wavefunction    = closed shell



                         DFT ENERGY GRADIENTS

    atom               coordinates                        gradient
                 x          y          z           x          y          z
   1 Br     -0.374521  -0.009701   0.166844   -0.000022  -0.000001   0.000010
   2 H       2.100224   0.054399  -0.935619    0.000022   0.000001  -0.000010

                 ----------------------------------------
                 |  Time  |  1-e(secs)   |  2-e(secs)   |
                 ----------------------------------------
                 |  CPU   |       0.01   |       2.50   |
                 ----------------------------------------
                 |  WALL  |       0.01   |       2.50   |
                 ----------------------------------------

  Step       Energy      Delta E   Gmax     Grms     Xrms     Xmax   Walltime
  ---- ---------------- -------- -------- -------- -------- -------- --------
@    5   -2574.41743859 -8.9D-09  0.00002  0.00001  0.00004  0.00007    107.1
                                     ok       ok       ok       ok  


      ----------------------
      Optimization converged
      ----------------------


  Step       Energy      Delta E   Gmax     Grms     Xrms     Xmax   Walltime
  ---- ---------------- -------- -------- -------- -------- -------- --------
@    5   -2574.41743859 -8.9D-09  0.00002  0.00001  0.00004  0.00007    107.1
                                     ok       ok       ok       ok  



                         Geometry "geometry" -> "geometry"
                         ---------------------------------

 Output coordinates in angstroms (scale by  1.889725989 to convert to a.u.)

  No.       Tag          Charge          X              Y              Z
 ---- ---------------- ---------- -------------- -------------- --------------
    1 Br                  35.0000    -0.19818821    -0.00513335     0.08828996
    2 H                    1.0000     1.11139095     0.02878657    -0.49510845

      Atomic Mass 
      ----------- 

      Br                79.916500
      H                  1.007825


 Effective nuclear repulsion energy (a.u.)      12.9153047450

            Nuclear Dipole moment (a.u.) 
            ----------------------------
        X                 Y               Z
 ---------------- ---------------- ----------------
   -11.0080250765    -0.2851231649     4.9039145755

 ==============================================================================
                                internuclear distances
 ------------------------------------------------------------------------------
       center one      |      center two      | atomic units |  angstroms
 ------------------------------------------------------------------------------
    2 H                |   1 Br               |     2.70996  |     1.43405
 ------------------------------------------------------------------------------
                         number of included internuclear distances:          1
 ==============================================================================




 Task  times  cpu:      105.6s     wall:      107.0s


                                NWChem Input Module
                                -------------------


 Summary of allocated global arrays
-----------------------------------
  No active global arrays


MA_summarize_allocated_blocks: starting scan ...
MA_summarize_allocated_blocks: scan completed: 0 heap blocks, 0 stack blocks
MA usage statistics:

	allocation statistics:
					      heap	     stack
					      ----	     -----
	current number of blocks	         0	         0
	maximum number of blocks	        24	        53
	current total bytes		         0	         0
	maximum total bytes		 268870432	  50482744
	maximum total K-bytes		    268871	     50483
	maximum total M-bytes		       269	        51


                                     CITATION
                                     --------
                Please cite the following reference when publishing
                           results obtained with NWChem:

          E. Apra, E. J. Bylaska, W. A. de Jong, N. Govind, K. Kowalski,
       T. P. Straatsma, M. Valiev, H. J. J. van Dam, Y. Alexeev, J. Anchell,
       V. Anisimov, F. W. Aquino, R. Atta-Fynn, J. Autschbach, N. P. Bauman,
     J. C. Becca, D. E. Bernholdt, K. Bhaskaran-Nair, S. Bogatko, P. Borowski,
         J. Boschen, J. Brabec, A. Bruner, E. Cauet, Y. Chen, G. N. Chuev,
      C. J. Cramer, J. Daily, M. J. O. Deegan, T. H. Dunning Jr., M. Dupuis,
   K. G. Dyall, G. I. Fann, S. A. Fischer, A. Fonari, H. Fruchtl, L. Gagliardi,
      J. Garza, N. Gawande, S. Ghosh, K. Glaesemann, A. W. Gotz, J. Hammond,
       V. Helms, E. D. Hermes, K. Hirao, S. Hirata, M. Jacquelin, L. Jensen,
   B. G. Johnson, H. Jonsson, R. A. Kendall, M. Klemm, R. Kobayashi, V. Konkov,
      S. Krishnamoorthy, M. Krishnan, Z. Lin, R. D. Lins, R. J. Littlefield,
      A. J. Logsdail, K. Lopata, W. Ma, A. V. Marenich, J. Martin del Campo,
   D. Mejia-Rodriguez, J. E. Moore, J. M. Mullin, T. Nakajima, D. R. Nascimento,
    J. A. Nichols, P. J. Nichols, J. Nieplocha, A. Otero-de-la-Roza, B. Palmer,
    A. Panyala, T. Pirojsirikul, B. Peng, R. Peverati, J. Pittner, L. Pollack,
   R. M. Richard, P. Sadayappan, G. C. Schatz, W. A. Shelton, D. W. Silverstein,
   D. M. A. Smith, T. A. Soares, D. Song, M. Swart, H. L. Taylor, G. S. Thomas,
            V. Tipparaju, D. G. Truhlar, K. Tsemekhman, T. Van Voorhis,
      A. Vazquez-Mayagoitia, P. Verma, O. Villa, A. Vishnu, K. D. Vogiatzis,
        D. Wang, J. H. Weare, M. J. Williamson, T. L. Windus, K. Wolinski,
        A. T. Wong, Q. Wu, C. Yang, Q. Yu, M. Zacharias, Z. Zhang, Y. Zhao,
                                and R. J. Harrison
                        "NWChem: Past, present, and future
                         J. Chem. Phys. 152, 184102 (2020)
                               doi:10.1063/5.0004997

                                      AUTHORS
                                      -------
  E. Apra, E. J. Bylaska, N. Govind, K. Kowalski, M. Valiev, D. Mejia-Rodriguez,
       A. Kunitsa, N. P. Bauman, A. Panyala, W. A. de Jong, T. P. Straatsma,
   H. J. J. van Dam, D. Wang, T. L. Windus, J. Hammond, J. Autschbach, A. Woods,
    K. Bhaskaran-Nair, J. Brabec, K. Lopata, S. A. Fischer, S. Krishnamoorthy,
     M. Jacquelin, W. Ma, M. Klemm, O. Villa, Y. Chen, V. Anisimov, F. Aquino,
     S. Hirata, M. T. Hackler, E. Hermes, L. Jensen, J. E. Moore, J. C. Becca,
      V. Konjkov, T. Risthaus, M. Malagoli, A. Marenich, A. Otero-de-la-Roza,
        J. Mullin, P. Nichols, R. Peverati, J. Pittner, Y. Zhao, P.-D. Fan,
        A. Fonari, M. J. Williamson, R. J. Harrison, J. R. Rehr, M. Dupuis,
     D. Silverstein, D. M. A. Smith, J. Nieplocha, V. Tipparaju, M. Krishnan,
     B. E. Van Kuiken, A. Vazquez-Mayagoitia, M. Swart, Q. Wu, T. Van Voorhis,
     A. A. Auer, M. Nooijen, L. D. Crosby, E. Brown, G. Cisneros, G. I. Fann,
   H. Fruchtl, J. Garza, K. Hirao, R. A. Kendall, J. A. Nichols, K. Tsemekhman,
    K. Wolinski, J. Anchell, D. E. Bernholdt, P. Borowski, T. Clark, D. Clerc,
   H. Dachsel, M. J. O. Deegan, K. Dyall, D. Elwood, E. Glendening, M. Gutowski,
   A. C. Hess, J. Jaffe, B. G. Johnson, J. Ju, R. Kobayashi, R. Kutteh, Z. Lin,
   R. Littlefield, X. Long, B. Meng, T. Nakajima, S. Niu, L. Pollack, M. Rosing,
   K. Glaesemann, G. Sandrone, M. Stave, H. Taylor, G. Thomas, J. H. van Lenthe,
                               A. T. Wong, Z. Zhang.

 Total times  cpu:      105.7s     wall:      107.2s
