 argument  1 = m2e/mol.nwi
                                         
                                         


             Northwest Computational Chemistry Package (NWChem) 7.2.2
             --------------------------------------------------------


                    Environmental Molecular Sciences Laboratory
                       Pacific Northwest National Laboratory
                                Richland, WA 99352

                              Copyright (c) 1994-2022
                       Pacific Northwest National Laboratory
                            Battelle Memorial Institute

             NWChem is an open-source computational chemistry package
                        distributed under the terms of the
                      Educational Community License (ECL) 2.0
             A copy of the license is included with this distribution
                              in the LICENSE.TXT file

                                  ACKNOWLEDGMENT
                                  --------------

            This software and its documentation were developed at the
            EMSL at Pacific Northwest National Laboratory, a multiprogram
            national laboratory, operated for the U.S. Department of Energy
            by Battelle under Contract Number DE-AC05-76RL01830. Support
            for this work was provided by the Department of Energy Office
            of Biological and Environmental Research, Office of Basic
            Energy Sciences, and the Office of Advanced Scientific Computing.


           Job information
           ---------------

    hostname        = r272.ib.bridges2.psc.edu
    program         = nwchem
    date            = Tue Oct  1 15:29:20 2024

    compiled        = Mon_Mar_18_17:03:37_2024
    source          = /ocean/projects/pscstaff/mmadrid/nwchem-7.2.2
    nwchem branch   = 7.2.2
    nwchem revision = 74936fb9
    ga revision     = 5.8.0
    use scalapack   = F
    input           = m2e/mol.nwi
    prefix          = dft.
    data base       = .//dft.db
    status          = startup
    nproc           =       15
    time left       =     -1s



           Memory information
           ------------------

    heap     =   67108864 doubles =    512.0 Mbytes
    stack    =   67108861 doubles =    512.0 Mbytes
    global   =  134217728 doubles =   1024.0 Mbytes (distinct from heap & stack)
    total    =  268435453 doubles =   2048.0 Mbytes
    verify   = yes
    hardfail = no 


           Directory information
           ---------------------

  0 permanent = ./
  0 scratch   = /jet/home/hmt47/nwchem_scratch/




                                NWChem Input Module
                                -------------------


  library name resolved from: environment
  library file name is: </opt/packages/nwchem/nwchem7.2.2/share/nwchem/libraries/>
  


 Summary of "ao basis" -> "" (cartesian)
 ------------------------------------------------------------------------------
       Tag                 Description            Shells   Functions and Types
 ---------------- ------------------------------  ------  ---------------------
 *                        aug-cc-pVTZ                 on all atoms 


  pbe96 is a nonlocal functional; adding pw91lda local functional. 

 Scaling coordinates for geometry "geometry" by  1.889725989
 (inverse scale =  0.529177249)



                             Geometry "geometry" -> ""
                             -------------------------

 Output coordinates in angstroms (scale by  1.889725989 to convert to a.u.)

  No.       Tag          Charge          X              Y              Z
 ---- ---------------- ---------- -------------- -------------- --------------
    1 P                   15.0000     0.00016271    -0.00062972    -0.03371994
    2 O                    8.0000    -0.00147621     1.52022332    -0.55910011
    3 O                    8.0000     1.31267574    -0.75474270    -0.57897002
    4 O                    8.0000     0.00482597    -0.01336791     1.57534523
    5 O                    8.0000    -1.31526221    -0.75473398    -0.57191515

      Atomic Mass 
      ----------- 

      P                 30.973760
      O                 15.994910


 Effective nuclear repulsion energy (a.u.)     235.2016964855

            Nuclear Dipole moment (a.u.) 
            ----------------------------
        X                 Y               Z
 ---------------- ---------------- ----------------
     0.0161514313    -0.0574778301    -2.9912841170


            XYZ format geometry
            -------------------
     5
 geometry
 P                     0.00016271    -0.00062972    -0.03371994
 O                    -0.00147621     1.52022332    -0.55910011
 O                     1.31267574    -0.75474270    -0.57897002
 O                     0.00482597    -0.01336791     1.57534523
 O                    -1.31526221    -0.75473398    -0.57191515

 ==============================================================================
                                internuclear distances
 ------------------------------------------------------------------------------
       center one      |      center two      | atomic units |  angstroms
 ------------------------------------------------------------------------------
    2 O                |   1 P                |     3.04065  |     1.60904
    3 O                |   1 P                |     3.04045  |     1.60894
    4 O                |   1 P                |     3.04080  |     1.60912
    5 O                |   1 P                |     3.04045  |     1.60893
 ------------------------------------------------------------------------------
                         number of included internuclear distances:          4
 ==============================================================================



 ==============================================================================
                                 internuclear angles
 ------------------------------------------------------------------------------
        center 1       |       center 2       |       center 3       |  degrees
 ------------------------------------------------------------------------------
    2 O                |   1 P                |   3 O                |   109.46
    2 O                |   1 P                |   4 O                |   109.51
    2 O                |   1 P                |   5 O                |   109.45
    3 O                |   1 P                |   4 O                |   109.44
    3 O                |   1 P                |   5 O                |   109.51
    4 O                |   1 P                |   5 O                |   109.46
 ------------------------------------------------------------------------------
                            number of included internuclear angles:          6
 ==============================================================================




                                 NWChem DFT Module
                                 -----------------


                      Basis "ao basis" -> "ao basis" (cartesian)
                      -----
  P (Phosphorous)
  ---------------
            Exponent  Coefficients 
       -------------- ---------------------------------------------------------
  1 S  3.12400000E+05  0.000058
  1 S  4.68000000E+04  0.000448
  1 S  1.06500000E+04  0.002349
  1 S  3.01800000E+03  0.009783
  1 S  9.86800000E+02  0.034147
  1 S  3.57400000E+02  0.100204
  1 S  1.39600000E+02  0.234372
  1 S  5.76300000E+01  0.382434
  1 S  2.46000000E+01  0.318088
  1 S  1.01200000E+01  0.070779
  1 S  4.28300000E+00 -0.001818
  1 S  1.80500000E+00  0.002162
  1 S  2.78200000E-01  0.000432

  2 S  3.12400000E+05 -0.000016
  2 S  4.68000000E+04 -0.000122
  2 S  1.06500000E+04 -0.000640
  2 S  3.01800000E+03 -0.002674
  2 S  9.86800000E+02 -0.009498
  2 S  3.57400000E+02 -0.028935
  2 S  1.39600000E+02 -0.074512
  2 S  5.76300000E+01 -0.149938
  2 S  2.46000000E+01 -0.189467
  2 S  1.01200000E+01  0.036327
  2 S  4.28300000E+00  0.528816
  2 S  1.80500000E+00  0.519115
  2 S  2.78200000E-01 -0.009257

  3 S  3.12400000E+05  0.000004
  3 S  4.68000000E+04  0.000033
  3 S  1.06500000E+04  0.000176
  3 S  3.01800000E+03  0.000734
  3 S  9.86800000E+02  0.002618
  3 S  3.57400000E+02  0.007979
  3 S  1.39600000E+02  0.020794
  3 S  5.76300000E+01  0.042445
  3 S  2.46000000E+01  0.056344
  3 S  1.01200000E+01 -0.012736
  3 S  4.28300000E+00 -0.196495
  3 S  1.80500000E+00 -0.353555
  3 S  2.78200000E-01  0.700912

  4 S  6.15800000E-01  1.000000

  5 S  1.05500000E-01  1.000000

  6 S  4.09000000E-02  1.000000

  7 P  5.04900000E+02  0.002337
  7 P  1.19400000E+02  0.018541
  7 P  3.79600000E+01  0.084969
  7 P  1.39500000E+01  0.244615
  7 P  5.45700000E+00  0.422766
  7 P  2.17700000E+00  0.368439
  7 P  2.87700000E-01 -0.003790

  8 P  5.04900000E+02 -0.000555
  8 P  1.19400000E+02 -0.004459
  8 P  3.79600000E+01 -0.020635
  8 P  1.39500000E+01 -0.061769
  8 P  5.45700000E+00 -0.108924
  8 P  2.17700000E+00 -0.105599
  8 P  2.87700000E-01  0.576981

  9 P  8.01000000E-01  1.000000

 10 P  9.71400000E-02  1.000000

 11 P  3.07000000E-02  1.000000

 12 D  2.16000000E-01  1.000000

 13 D  6.52000000E-01  1.000000

 14 D  7.75000000E-02  1.000000

 15 F  4.52000000E-01  1.000000

 16 F  1.65000000E-01  1.000000

  O (Oxygen)
  ----------
            Exponent  Coefficients 
       -------------- ---------------------------------------------------------
  1 S  1.53300000E+04  0.000508
  1 S  2.29900000E+03  0.003929
  1 S  5.22400000E+02  0.020243
  1 S  1.47300000E+02  0.079181
  1 S  4.75500000E+01  0.230687
  1 S  1.67600000E+01  0.433118
  1 S  6.20700000E+00  0.350260
  1 S  6.88200000E-01 -0.008154

  2 S  1.53300000E+04 -0.000115
  2 S  2.29900000E+03 -0.000895
  2 S  5.22400000E+02 -0.004636
  2 S  1.47300000E+02 -0.018724
  2 S  4.75500000E+01 -0.058463
  2 S  1.67600000E+01 -0.136463
  2 S  6.20700000E+00 -0.175740
  2 S  6.88200000E-01  0.603418

  3 S  1.75200000E+00  1.000000

  4 S  2.38400000E-01  1.000000

  5 S  7.37600000E-02  1.000000

  6 P  3.44600000E+01  0.015928
  6 P  7.74900000E+00  0.099740
  6 P  2.28000000E+00  0.310492

  7 P  7.15600000E-01  1.000000

  8 P  2.14000000E-01  1.000000

  9 P  5.97400000E-02  1.000000

 10 D  2.31400000E+00  1.000000

 11 D  6.45000000E-01  1.000000

 12 D  2.14000000E-01  1.000000

 13 F  1.42800000E+00  1.000000

 14 F  5.00000000E-01  1.000000



 Summary of "ao basis" -> "ao basis" (cartesian)
 ------------------------------------------------------------------------------
       Tag                 Description            Shells   Functions and Types
 ---------------- ------------------------------  ------  ---------------------
 P                        aug-cc-pVTZ               16       59   6s5p3d2f
 O                        aug-cc-pVTZ               14       55   5s4p3d2f




 Summary of "ao basis" -> "ao basis" (cartesian)
 ------------------------------------------------------------------------------
       Tag                 Description            Shells   Functions and Types
 ---------------- ------------------------------  ------  ---------------------
 P                        aug-cc-pVTZ               16       59   6s5p3d2f
 O                        aug-cc-pVTZ               14       55   5s4p3d2f


  Caching 1-el integrals 

            General Information
            -------------------
          SCF calculation type: DFT
          Wavefunction type:  spin polarized.
          No. of atoms     :     5
          No. of electrons :    49
           Alpha electrons :    25
            Beta electrons :    24
          Charge           :    -2
          Spin multiplicity:     2
          Use of symmetry is: off; symmetry adaption is: off
          Maximum number of iterations: 100
          AO basis - number of functions:   279
                     number of shells:    72
          Convergence on energy requested:  1.00D-06
          Convergence on density requested:  1.00D-05
          Convergence on gradient requested:  5.00D-04

              XC Information
              --------------
          PerdewBurkeErnzerhof Exchange Functional  1.000          
            Perdew 1991 LDA Correlation Functional  1.000 local    
           PerdewBurkeErnz. Correlation Functional  1.000 non-local

             Grid Information
             ----------------
          Grid used for XC integration:  medium    
          Radial quadrature: Mura-Knowles        
          Angular quadrature: Lebedev. 
          Tag              B.-S. Rad. Rad. Pts. Rad. Cut. Ang. Pts.
          ---              ---------- --------- --------- ---------
          P                   1.00       88          10.0       590
          O                   0.60       49          11.0       434
          Grid pruning is: on 
          Number of quadrature shells:   284
          Spatial weights used:  Erf1

          Convergence Information
          -----------------------
          Convergence aids based upon iterative change in 
          total energy or number of iterations. 
          Levelshifting, if invoked, occurs when the 
          HOMO/LUMO gap drops below (HL_TOL):  1.00D-02
          DIIS, if invoked, will attempt to extrapolate 
          using up to (NFOCK): 10 stored Fock matrices.

                    Damping(40%)  Levelshifting(0.0)       DIIS
                  --------------- ------------------- ---------------
          dE  on:    start            0.00D+00            start   
          dE off:  100 iters          0.00D+00          100 iters 


      Screening Tolerance Information
      -------------------------------
          Density screening/tol_rho:  1.00D-10
          AO Gaussian exp screening on grid/accAOfunc:  14
          CD Gaussian exp screening on grid/accCDfunc:  20
          XC Gaussian exp screening on grid/accXCfunc:  20
          Schwarz screening/accCoul:  1.00D-08


 Forcing the number of linearly dependent vectors to be  0

      Superposition of Atomic Density Guess
      -------------------------------------

 Sum of atomic energies:        -639.78286225
   Time after variat. SCF:      0.5
   Time prior to 1st pass:      0.5

 Grid_pts file          = /jet/home/hmt47/nwchem_scratch//dft.gridpts.00
 Record size in doubles =  12289        No. of grid_pts per rec  =   3070
 Max. records in memory =      5        Max. recs in file   =  67550051

 Grid integrated density:      46.999999504654
 Requested integration accuracy:   0.10E-05

           Memory utilization after 1st SCF pass: 
           Heap Space remaining (MW):       33.36            33363912
          Stack Space remaining (MW):       67.11            67106500

   convergence    iter        energy       DeltaE   RMS-Dens  Diis-err    time
 ---------------- ----- ----------------- --------- --------- ---------  ------
 d=40,ls=0.0,diis     1   -642.3975808172 -8.78D+02  5.66D-03  8.87D+00     1.6
                                                     5.57D-03  8.19D+00
 Grid integrated density:      48.199999247119
 Requested integration accuracy:   0.10E-05
 d=40,ls=0.0,diis     2   -642.1492749085  2.48D-01  8.98D-01  1.61D+00     4.6
                                                     8.85D-01  1.49D+00
 Grid integrated density:      48.679996895909
 Requested integration accuracy:   0.10E-05
 d=40,ls=0.0,diis     3   -639.8931659735  2.26D+00  5.39D-01  2.30D+00     7.8
                                                     5.31D-01  2.22D+00
 Grid integrated density:      48.871998115266
 Requested integration accuracy:   0.10E-05
 d=40,ls=0.0,diis     4   -641.5776223723 -1.68D+00  2.15D-01  3.34D-01    11.0
                                                     2.12D-01  2.96D-01
 Grid integrated density:      48.948798802445
 Requested integration accuracy:   0.10E-05
 d=40,ls=0.0,diis     5   -641.8374312299 -2.60D-01  8.61D-02  5.45D-02    14.1
                                                     8.48D-02  4.60D-02
 Grid integrated density:      48.979519036276
 Requested integration accuracy:   0.10E-05
 d=40,ls=0.0,diis     6   -641.9052627745 -6.78D-02  3.43D-02  1.75D-02    17.3
                                                     3.38D-02  1.61D-02
 Grid integrated density:      48.991807122325
 Requested integration accuracy:   0.10E-05
  Resetting Diis
 d=40,ls=0.0,diis     7   -641.9165157374 -1.13D-02  1.37D-02  4.03D-02    20.7
                                                     1.36D-02  3.54D-02
 Grid integrated density:      48.996722737596
 Requested integration accuracy:   0.10E-05
 d=40,ls=0.0,diis     8   -641.9397274578 -2.32D-02  5.43D-03  1.14D-02    23.8
                                                     5.68D-03  8.81D-03
 Grid integrated density:      48.998688792507
 Requested integration accuracy:   0.10E-05
 d=40,ls=0.0,diis     9   -641.9029007252  3.68D-02  2.34D-03  9.24D-02    26.9
                                                     2.83D-03  7.91D-02
 Grid integrated density:      48.999475270290
 Requested integration accuracy:   0.10E-05
 d=40,ls=0.0,diis    10   -641.9444601852 -4.16D-02  1.01D-03  7.85D-03    30.0
                                                     1.91D-03  6.65D-03
 Grid integrated density:      48.999789854836
 Requested integration accuracy:   0.10E-05
 d=40,ls=0.0,diis    11   -641.9426407432  1.82D-03  4.31D-04  1.56D-02    33.1
                                                     1.26D-03  1.25D-02
 Grid integrated density:      48.999915698973
 Requested integration accuracy:   0.10E-05
 d=40,ls=0.0,diis    12   -641.9439998896 -1.36D-03  2.02D-04  1.46D-02    36.2
                                                     1.06D-03  1.19D-02
 d=40,ls=0.0,diis    13   -641.9503404436 -6.34D-03  8.91D-05  3.22D-03    39.3
                                                     2.44D-04  2.60D-03
 d=40,ls=0.0,diis    14   -641.9511544470 -8.14D-04  3.91D-05  2.42D-03    42.4
                                                     9.80D-05  1.81D-03
 d=40,ls=0.0,diis    15   -641.9514530596 -2.99D-04  8.18D-05  2.17D-03    45.5
                                                     8.63D-05  1.61D-03
 d=40,ls=0.0,diis    16   -641.9518150026 -3.62D-04  3.28D-05  1.38D-03    48.6
                                                     9.61D-05  1.14D-03
 d=40,ls=0.0,diis    17   -641.9522033036 -3.88D-04  3.62D-05  6.21D-04    51.7
                                                     1.06D-04  5.18D-04
 d=40,ls=0.0,diis    18   -641.9524412876 -2.38D-04  1.13D-05  1.34D-04    54.8
                                                     5.37D-05  1.15D-04
 d=40,ls=0.0,diis    19   -641.9524965074 -5.52D-05  5.44D-06  4.03D-05    57.9
                                                     1.94D-05  3.38D-05
 d=40,ls=0.0,diis    20   -641.9525120490 -1.55D-05  4.14D-06  1.76D-05    61.0
                                                     4.81D-06  1.48D-05
 d=40,ls=0.0,diis    21   -641.9525170127 -4.96D-06  3.19D-06  1.12D-05    64.1
                                                     1.40D-05  9.72D-06
 d=40,ls=0.0,diis    22   -641.9525219950 -4.98D-06  1.46D-06  2.56D-06    67.2
                                                     7.32D-06  2.24D-06
 d=40,ls=0.0,diis    23   -641.9525233450 -1.35D-06  6.12D-07  5.55D-07    70.3
                                                     2.84D-06  4.83D-07
 d=40,ls=0.0,diis    24   -641.9525237148 -3.70D-07  3.45D-07  1.32D-07    73.4
                                                     1.20D-06  1.13D-07


         Total DFT energy =     -641.952523714762
      One electron energy =    -1375.380533648217
           Coulomb energy =      555.760871150962
    Exchange-Corr. energy =      -57.534557702973
 Nuclear repulsion energy =      235.201696485467

 Numeric. integr. density =       48.999999581270

     Total iterative time =     73.2s



                    DFT Final Alpha Molecular Orbital Analysis
                    ------------------------------------------

 Vector    1  Occ=1.000000D+00  E=-7.601435D+01
              MO Center=  1.6D-04, -6.3D-04, -3.4D-02, r^2= 4.1D-03
   Bfn.  Coefficient  Atom+Function         Bfn.  Coefficient  Atom+Function  
  ----- ------------  ---------------      ----- ------------  ---------------
     1      1.004371  1 P  s                  3      0.038045  1 P  s          
     2      0.028755  1 P  s          

 Vector    2  Occ=1.000000D+00  E=-1.835348D+01
              MO Center=  1.7D-01, -3.1D-02,  7.9D-01, r^2= 1.9D+00
   Bfn.  Coefficient  Atom+Function         Bfn.  Coefficient  Atom+Function  
  ----- ------------  ---------------      ----- ------------  ---------------
   170      0.780059  4 O  s                115      0.426441  3 O  s          
    60      0.326957  2 O  s                225      0.248922  5 O  s          
     5     -0.104686  1 P  s                174     -0.053617  4 O  s          
   172      0.051114  4 O  s                183     -0.044584  4 O  pz         
   119     -0.040714  3 O  s                 64     -0.037145  2 O  s          

 Vector    3  Occ=1.000000D+00  E=-1.835346D+01
              MO Center=  6.8D-01, -2.8D-01,  1.5D-01, r^2= 2.0D+00
   Bfn.  Coefficient  Atom+Function         Bfn.  Coefficient  Atom+Function  
  ----- ------------  ---------------      ----- ------------  ---------------
   115      0.718316  3 O  s                170     -0.568087  4 O  s          
    60      0.304945  2 O  s                225      0.154700  5 O  s          
   173      0.046741  4 O  s                117      0.046294  3 O  s          
     5     -0.035813  1 P  s                172     -0.035794  4 O  s          
   119     -0.034831  3 O  s                118     -0.028792  3 O  s          

 Vector    4  Occ=1.000000D+00  E=-1.835345D+01
              MO Center=  2.8D-01,  8.5D-01, -5.3D-01, r^2= 1.6D+00
   Bfn.  Coefficient  Atom+Function         Bfn.  Coefficient  Atom+Function  
  ----- ------------  ---------------      ----- ------------  ---------------
    60      0.817422  2 O  s                115     -0.488429  3 O  s          
   225      0.177236  5 O  s                170     -0.131080  4 O  s          
    62      0.052444  2 O  s                 63     -0.039777  2 O  s          
   118      0.036907  3 O  s                 64     -0.035092  2 O  s          
   117     -0.030887  3 O  s          

 Vector    5  Occ=1.000000D+00  E=-1.835343D+01
              MO Center= -1.1D+00, -5.4D-01, -5.5D-01, r^2= 7.7D-01
   Bfn.  Coefficient  Atom+Function         Bfn.  Coefficient  Atom+Function  
  ----- ------------  ---------------      ----- ------------  ---------------
   225      0.916008  5 O  s                 60     -0.297163  2 O  s          
   115     -0.141372  3 O  s                170     -0.089329  4 O  s          
   227      0.058744  5 O  s                228     -0.045276  5 O  s          
   229     -0.038880  5 O  s                 63      0.025951  2 O  s          

 Vector    6  Occ=1.000000D+00  E=-5.995140D+00
              MO Center=  1.6D-04, -6.3D-04, -3.4D-02, r^2= 9.1D-02
   Bfn.  Coefficient  Atom+Function         Bfn.  Coefficient  Atom+Function  
  ----- ------------  ---------------      ----- ------------  ---------------
     2      0.901844  1 P  s                  4      0.105122  1 P  s          
     3     -0.053493  1 P  s          

 Vector    7  Occ=1.000000D+00  E=-4.211974D+00
              MO Center=  1.6D-04, -6.0D-04, -3.4D-02, r^2= 8.3D-02
   Bfn.  Coefficient  Atom+Function         Bfn.  Coefficient  Atom+Function  
  ----- ------------  ---------------      ----- ------------  ---------------
     9      0.720259  1 P  pz                 7     -0.610734  1 P  px         
     8     -0.496247  1 P  py                12      0.169603  1 P  pz         
    10     -0.143820  1 P  px                11     -0.116859  1 P  py         
    42     -0.072170  1 P  fxxz              47     -0.070580  1 P  fyyz       
    49     -0.070244  1 P  fzzz              45      0.060518  1 P  fxzz       

 Vector    8  Occ=1.000000D+00  E=-4.211973D+00
              MO Center=  1.6D-04, -6.6D-04, -3.4D-02, r^2= 8.3D-02
   Bfn.  Coefficient  Atom+Function         Bfn.  Coefficient  Atom+Function  
  ----- ------------  ---------------      ----- ------------  ---------------
     7      0.874627  1 P  px                 9      0.496700  1 P  pz         
     8     -0.355483  1 P  py                10      0.205979  1 P  px         
    12      0.116969  1 P  pz                45     -0.086638  1 P  fxzz       
    40     -0.085651  1 P  fxxx              43     -0.085668  1 P  fxyy       
    11     -0.083718  1 P  py                42     -0.049804  1 P  fxxz       

 Vector    9  Occ=1.000000D+00  E=-4.211925D+00
              MO Center=  1.6D-04, -6.3D-04, -3.4D-02, r^2= 8.3D-02
   Bfn.  Coefficient  Atom+Function         Bfn.  Coefficient  Atom+Function  
  ----- ------------  ---------------      ----- ------------  ---------------
     8      0.874885  1 P  py                 9      0.610370  1 P  pz         
    11      0.206025  1 P  py                12      0.143729  1 P  pz         
    48     -0.086786  1 P  fyzz              46     -0.086011  1 P  fyyy       
    41     -0.084657  1 P  fxxy              47     -0.062000  1 P  fyyz       
    49     -0.059542  1 P  fzzz              42     -0.058997  1 P  fxxz       

 Vector   10  Occ=1.000000D+00  E=-5.377018D-01
              MO Center=  3.2D-04, -9.8D-04, -3.4D-02, r^2= 2.1D+00
   Bfn.  Coefficient  Atom+Function         Bfn.  Coefficient  Atom+Function  
  ----- ------------  ---------------      ----- ------------  ---------------
     3      0.280944  1 P  s                 61      0.208773  2 O  s          
   116      0.208930  3 O  s                171      0.208767  4 O  s          
   226      0.208869  5 O  s                 63      0.113570  2 O  s          
   118      0.113670  3 O  s                173      0.113575  4 O  s          
   228      0.113627  5 O  s                  4      0.066855  1 P  s          

 Vector   11  Occ=1.000000D+00  E=-4.563235D-01
              MO Center=  2.9D-02, -4.9D-01, -4.0D-01, r^2= 2.2D+00
   Bfn.  Coefficient  Atom+Function         Bfn.  Coefficient  Atom+Function  
  ----- ------------  ---------------      ----- ------------  ---------------
   116      0.335929  3 O  s                226     -0.326089  5 O  s          
   118      0.216521  3 O  s                228     -0.210201  5 O  s          
    16     -0.152736  1 P  px                10      0.138429  1 P  px         
    61     -0.126659  2 O  s                171      0.116764  4 O  s          
   117      0.094905  3 O  s                227     -0.092125  5 O  s          

 Vector   12  Occ=1.000000D+00  E=-4.562953D-01
              MO Center=  4.2D-03,  4.9D-01,  3.3D-01, r^2= 2.2D+00
   Bfn.  Coefficient  Atom+Function         Bfn.  Coefficient  Atom+Function  
  ----- ------------  ---------------      ----- ------------  ---------------
   171     -0.332462  4 O  s                 61      0.329717  2 O  s          
   173     -0.214317  4 O  s                 63      0.212554  2 O  s          
    18      0.124617  1 P  pz               116      0.123054  3 O  s          
   226     -0.120359  5 O  s                 12     -0.112924  1 P  pz         
   172     -0.093928  4 O  s                 62      0.093152  2 O  s          

 Vector   13  Occ=1.000000D+00  E=-4.560566D-01
              MO Center= -3.3D-02, -2.2D-03, -3.1D-02, r^2= 2.6D+00
   Bfn.  Coefficient  Atom+Function         Bfn.  Coefficient  Atom+Function  
  ----- ------------  ---------------      ----- ------------  ---------------
   226     -0.256688  5 O  s                 61      0.249004  2 O  s          
   171      0.250222  4 O  s                116     -0.242280  3 O  s          
   228     -0.165013  5 O  s                 63      0.160102  2 O  s          
   173      0.160897  4 O  s                118     -0.155726  3 O  s          
    17     -0.133999  1 P  py                11      0.119641  1 P  py         

 Vector   14  Occ=1.000000D+00  E=-7.741773D-02
              MO Center=  2.5D-04, -7.1D-04, -3.4D-02, r^2= 3.2D+00
   Bfn.  Coefficient  Atom+Function         Bfn.  Coefficient  Atom+Function  
  ----- ------------  ---------------      ----- ------------  ---------------
     3      0.407831  1 P  s                  5      0.263186  1 P  s          
    63     -0.166773  2 O  s                118     -0.166795  3 O  s          
   173     -0.166772  4 O  s                228     -0.166784  5 O  s          
    61     -0.151003  2 O  s                116     -0.151017  3 O  s          
   171     -0.150993  4 O  s                226     -0.151014  5 O  s          

 Vector   15  Occ=1.000000D+00  E= 1.578337D-02
              MO Center=  4.7D-04,  2.2D-01,  1.3D-01, r^2= 3.0D+00
   Bfn.  Coefficient  Atom+Function         Bfn.  Coefficient  Atom+Function  
  ----- ------------  ---------------      ----- ------------  ---------------
    12      0.181324  1 P  pz                66      0.169541  2 O  py         
    69      0.168785  2 O  py               177     -0.162967  4 O  pz         
   180     -0.162059  4 O  pz                63      0.146486  2 O  s          
   173     -0.146611  4 O  s                 11     -0.130315  1 P  py         
   125      0.119181  3 O  pz               122      0.118015  3 O  pz         

 Vector   16  Occ=1.000000D+00  E= 1.579394D-02
              MO Center=  9.3D-04, -2.3D-01, -1.9D-01, r^2= 3.0D+00
   Bfn.  Coefficient  Atom+Function         Bfn.  Coefficient  Atom+Function  
  ----- ------------  ---------------      ----- ------------  ---------------
    10      0.223286  1 P  px               118     -0.146711  3 O  s          
   228      0.146421  5 O  s                121      0.136183  3 O  py         
   124      0.136384  3 O  py                13      0.123600  1 P  px         
   232     -0.115931  5 O  pz               235     -0.116360  5 O  pz         
   120     -0.104251  3 O  px               230     -0.104283  5 O  px         

 Vector   17  Occ=1.000000D+00  E= 1.925319D-02
              MO Center= -7.3D-04, -1.2D-04, -3.5D-02, r^2= 3.2D+00
   Bfn.  Coefficient  Atom+Function         Bfn.  Coefficient  Atom+Function  
  ----- ------------  ---------------      ----- ------------  ---------------
    11      0.204977  1 P  py               120      0.153323  3 O  px         
   230     -0.153569  5 O  px               123      0.152375  3 O  px         
   233     -0.152616  5 O  px                12      0.146961  1 P  pz         
   177     -0.132372  4 O  pz               180     -0.130857  4 O  pz         
    63     -0.118227  2 O  s                118      0.118016  3 O  s          

 Vector   18  Occ=1.000000D+00  E= 8.756275D-02
              MO Center=  8.7D-04, -1.0D-03, -3.3D-02, r^2= 3.2D+00
   Bfn.  Coefficient  Atom+Function         Bfn.  Coefficient  Atom+Function  
  ----- ------------  ---------------      ----- ------------  ---------------
    68      0.179897  2 O  px               178     -0.180070  4 O  px         
    65      0.178471  2 O  px               175     -0.178643  4 O  px         
   125     -0.146305  3 O  pz               235      0.146038  5 O  pz         
   122     -0.145146  3 O  pz               232      0.144879  5 O  pz         
    71      0.130343  2 O  px               181     -0.130473  4 O  px         

 Vector   19  Occ=1.000000D+00  E= 1.028640D-01
              MO Center=  4.4D-04, -1.7D-02, -4.5D-02, r^2= 3.5D+00
   Bfn.  Coefficient  Atom+Function         Bfn.  Coefficient  Atom+Function  
  ----- ------------  ---------------      ----- ------------  ---------------
    16      0.162751  1 P  px                18      0.157555  1 P  pz         
   232      0.130891  5 O  pz               235      0.129125  5 O  pz         
   177      0.123615  4 O  pz                68      0.122625  2 O  px         
   178      0.122444  4 O  px                65      0.121801  2 O  px         
   175      0.121638  4 O  px                64      0.117397  2 O  s          

 Vector   20  Occ=1.000000D+00  E= 1.028683D-01
              MO Center=  5.9D-04,  1.6D-02, -2.2D-02, r^2= 3.5D+00
   Bfn.  Coefficient  Atom+Function         Bfn.  Coefficient  Atom+Function  
  ----- ------------  ---------------      ----- ------------  ---------------
    16      0.194175  1 P  px                68      0.146265  2 O  px         
   178      0.146255  4 O  px                65      0.145255  2 O  px         
   175      0.145229  4 O  px               120      0.133649  3 O  px         
   230      0.133611  5 O  px                18     -0.132344  1 P  pz         
   123      0.125618  3 O  px               233      0.125567  5 O  px         

 Vector   21  Occ=1.000000D+00  E= 1.048704D-01
              MO Center= -1.0D-03, -1.3D-03, -3.5D-02, r^2= 3.2D+00
   Bfn.  Coefficient  Atom+Function         Bfn.  Coefficient  Atom+Function  
  ----- ------------  ---------------      ----- ------------  ---------------
   176      0.176064  4 O  py               179      0.175522  4 O  py         
    67      0.166829  2 O  pz                70      0.166242  2 O  pz         
   182      0.132128  4 O  py                73      0.127437  2 O  pz         
   121     -0.117405  3 O  py               124     -0.117122  3 O  py         
   231     -0.117135  5 O  py               234     -0.116876  5 O  py         

 Vector   22  Occ=1.000000D+00  E= 1.121215D-01
              MO Center=  2.7D-04,  7.0D-04, -3.3D-02, r^2= 3.5D+00
   Bfn.  Coefficient  Atom+Function         Bfn.  Coefficient  Atom+Function  
  ----- ------------  ---------------      ----- ------------  ---------------
    17      0.204518  1 P  py                66      0.149419  2 O  py         
    18      0.146921  1 P  pz               121      0.146804  3 O  py         
   231      0.146719  5 O  py               176      0.144606  4 O  py         
   179      0.144191  4 O  py               124      0.142342  3 O  py         
   234      0.142257  5 O  py                69      0.140914  2 O  py         

 Vector   23  Occ=1.000000D+00  E= 1.434409D-01
              MO Center=  3.6D-04, -7.5D-04, -3.3D-02, r^2= 3.3D+00
   Bfn.  Coefficient  Atom+Function         Bfn.  Coefficient  Atom+Function  
  ----- ------------  ---------------      ----- ------------  ---------------
    68      0.201568  2 O  px               178     -0.201656  4 O  px         
    65      0.198562  2 O  px               175     -0.198646  4 O  px         
   125      0.163840  3 O  pz               235     -0.163719  5 O  pz         
   122      0.161394  3 O  pz               232     -0.161276  5 O  pz         
    71      0.158736  2 O  px               181     -0.158814  4 O  px         

 Vector   24  Occ=1.000000D+00  E= 1.588534D-01
              MO Center=  7.5D-04,  3.7D-01,  2.4D-01, r^2= 3.1D+00
   Bfn.  Coefficient  Atom+Function         Bfn.  Coefficient  Atom+Function  
  ----- ------------  ---------------      ----- ------------  ---------------
   176     -0.237812  4 O  py               179     -0.238801  4 O  py         
    67      0.229001  2 O  pz                70      0.229469  2 O  pz         
   182     -0.192088  4 O  py                73      0.184678  2 O  pz         
   185     -0.133639  4 O  py               235     -0.131193  5 O  pz         
    76      0.130065  2 O  pz               232     -0.129332  5 O  pz         

 Vector   25  Occ=1.000000D+00  E= 1.588559D-01
              MO Center= -8.7D-04, -3.8D-01, -3.0D-01, r^2= 3.1D+00
   Bfn.  Coefficient  Atom+Function         Bfn.  Coefficient  Atom+Function  
  ----- ------------  ---------------      ----- ------------  ---------------
   234      0.176205  5 O  py               231      0.174472  5 O  py         
   120     -0.148112  3 O  px               123     -0.147496  3 O  px         
   230     -0.147542  5 O  px               233     -0.146920  5 O  px         
   125     -0.141649  3 O  pz               237      0.141934  5 O  py         
   122     -0.140146  3 O  pz               124     -0.129819  3 O  py         

 Vector   26  Occ=0.000000D+00  E= 2.607673D-01
              MO Center=  4.7D-04,  2.4D-01,  1.4D-01, r^2= 2.2D+01
   Bfn.  Coefficient  Atom+Function         Bfn.  Coefficient  Atom+Function  
  ----- ------------  ---------------      ----- ------------  ---------------
    18      4.127687  1 P  pz                64      4.076570  2 O  s          
   174     -4.081926  4 O  s                 17     -2.962359  1 P  py         
    21      2.260467  1 P  pz                20     -1.622209  1 P  py         
    16      1.152672  1 P  px                59     -0.947569  1 P  fzzz       
    57     -0.942259  1 P  fyyz              52     -0.914229  1 P  fxxz       

 Vector   27  Occ=0.000000D+00  E= 2.607684D-01
              MO Center=  1.4D-03, -2.4D-01, -2.1D-01, r^2= 2.2D+01
   Bfn.  Coefficient  Atom+Function         Bfn.  Coefficient  Atom+Function  
  ----- ------------  ---------------      ----- ------------  ---------------
    16      5.080665  1 P  px               119     -4.083170  3 O  s          
   229      4.076262  5 O  s                 19      2.782205  1 P  px         
    50     -1.160248  1 P  fxxx              53     -1.160037  1 P  fxyy       
    55     -1.143364  1 P  fxzz              18     -0.941156  1 P  pz         
    35     -0.921516  1 P  dxy               64     -0.912194  2 O  s          

 Vector   28  Occ=0.000000D+00  E= 2.611954D-01
              MO Center= -2.9D-04, -2.3D-04, -3.4D-02, r^2= 2.2D+01
   Bfn.  Coefficient  Atom+Function         Bfn.  Coefficient  Atom+Function  
  ----- ------------  ---------------      ----- ------------  ---------------
    17      4.256372  1 P  py                18      3.051109  1 P  pz         
    64     -2.971289  2 O  s                119      2.964408  3 O  s          
   174     -2.962253  4 O  s                229      2.969929  5 O  s          
    20      2.323348  1 P  py                21      1.665531  1 P  pz         
    51     -0.989982  1 P  fxxy              56     -0.968957  1 P  fyyy       

 Vector   29  Occ=0.000000D+00  E= 2.623941D-01
              MO Center= -9.0D-04, -8.5D-04, -3.3D-02, r^2= 1.7D+01
   Bfn.  Coefficient  Atom+Function         Bfn.  Coefficient  Atom+Function  
  ----- ------------  ---------------      ----- ------------  ---------------
     5     11.072972  1 P  s                  6      6.601467  1 P  s          
    64     -2.841209  2 O  s                119     -2.840629  3 O  s          
   174     -2.841851  4 O  s                229     -2.842532  5 O  s          
    63     -1.596438  2 O  s                118     -1.596493  3 O  s          
   173     -1.596312  4 O  s                228     -1.596684  5 O  s          

 Vector   30  Occ=0.000000D+00  E= 3.364618D-01
              MO Center=  3.6D-01, -2.2D-01,  3.0D-01, r^2= 1.8D+01
   Bfn.  Coefficient  Atom+Function         Bfn.  Coefficient  Atom+Function  
  ----- ------------  ---------------      ----- ------------  ---------------
    18     11.984350  1 P  pz                17      8.690915  1 P  py         
   174     -7.081000  4 O  s                119      6.867490  3 O  s          
    16     -4.176767  1 P  px                57     -3.488238  1 P  fyyz       
   186      3.434351  4 O  pz                52     -3.379228  1 P  fxxz       
    59     -3.364903  1 P  fzzz             229      2.775449  5 O  s          

 Vector   31  Occ=0.000000D+00  E= 3.364697D-01
              MO Center= -4.1D-01,  1.3D-01, -3.7D-01, r^2= 1.8D+01
   Bfn.  Coefficient  Atom+Function         Bfn.  Coefficient  Atom+Function  
  ----- ------------  ---------------      ----- ------------  ---------------
    16     10.656916  1 P  px                17     10.412360  1 P  py         
   229      7.322741  5 O  s                 64     -6.595239  2 O  s          
    18     -3.840841  1 P  pz                55     -3.052630  1 P  fxzz       
   119     -3.045738  3 O  s                 50     -3.006170  1 P  fxxx       
    53     -3.007180  1 P  fxyy              75      3.020256  2 O  py         

 Vector   32  Occ=0.000000D+00  E= 3.364776D-01
              MO Center=  4.5D-02,  9.3D-02, -2.9D-02, r^2= 1.8D+01
   Bfn.  Coefficient  Atom+Function         Bfn.  Coefficient  Atom+Function  
  ----- ------------  ---------------      ----- ------------  ---------------
    16     10.285929  1 P  px                18      8.849094  1 P  pz         
    17     -7.260821  1 P  py                64      5.807606  2 O  s          
   174     -5.312085  4 O  s                119     -5.229422  3 O  s          
   229      4.740360  5 O  s                 55     -2.944941  1 P  fxzz       
    50     -2.901995  1 P  fxxx              53     -2.902242  1 P  fxyy       

 Vector   33  Occ=0.000000D+00  E= 3.542441D-01
              MO Center=  3.3D-04, -7.8D-04, -3.3D-02, r^2= 1.6D+01
   Bfn.  Coefficient  Atom+Function         Bfn.  Coefficient  Atom+Function  
  ----- ------------  ---------------      ----- ------------  ---------------
    36      3.598315  1 P  dxz               35     -2.586088  1 P  dxy        
    74      1.502611  2 O  px               184     -1.502498  4 O  px         
   131     -1.222373  3 O  pz               241      1.218562  5 O  pz         
    24      1.067233  1 P  dxz              240     -0.879261  5 O  py         
   130      0.874063  3 O  py                23     -0.766885  1 P  dxy        

 Vector   34  Occ=0.000000D+00  E= 3.551944D-01
              MO Center=  2.4D-04, -8.6D-04, -3.4D-02, r^2= 1.6D+01
   Bfn.  Coefficient  Atom+Function         Bfn.  Coefficient  Atom+Function  
  ----- ------------  ---------------      ----- ------------  ---------------
    38      3.669782  1 P  dyz              185     -1.509566  4 O  py         
    34     -1.418726  1 P  dxx               76     -1.411453  2 O  pz         
    37      1.135269  1 P  dyy               26      1.089611  1 P  dyz        
   130      1.028569  3 O  py               240      1.020793  5 O  py         
   129      0.833551  3 O  px               239     -0.829676  5 O  px         

 Vector   35  Occ=0.000000D+00  E= 3.618488D-01
              MO Center=  3.7D-04, -1.2D-03, -3.3D-02, r^2= 2.0D+01
   Bfn.  Coefficient  Atom+Function         Bfn.  Coefficient  Atom+Function  
  ----- ------------  ---------------      ----- ------------  ---------------
     5     30.363660  1 P  s                  6    -14.190362  1 P  s          
    34     10.653052  1 P  dxx               37     10.684415  1 P  dyy        
    39     10.668980  1 P  dzz               64     -9.390027  2 O  s          
   119     -9.393480  3 O  s                174     -9.389691  4 O  s          
   229     -9.393076  5 O  s                186      3.886198  4 O  pz         

 Vector   36  Occ=0.000000D+00  E= 4.342054D-01
              MO Center=  9.4D-04, -1.4D-03, -3.3D-02, r^2= 1.4D+01
   Bfn.  Coefficient  Atom+Function         Bfn.  Coefficient  Atom+Function  
  ----- ------------  ---------------      ----- ------------  ---------------
    74      1.550869  2 O  px               184     -1.553753  4 O  px         
   131      1.261878  3 O  pz               241     -1.261896  5 O  pz         
   130     -0.906131  3 O  py               240      0.902757  5 O  py         
    53     -0.458132  1 P  fxyy              55      0.458012  1 P  fxzz       
    54      0.308931  1 P  fxyz              71     -0.249310  2 O  px         

 Vector   37  Occ=0.000000D+00  E= 4.349471D-01
              MO Center=  4.9D-04,  1.5D-01,  7.7D-02, r^2= 1.4D+01
   Bfn.  Coefficient  Atom+Function         Bfn.  Coefficient  Atom+Function  
  ----- ------------  ---------------      ----- ------------  ---------------
   185     -1.568299  4 O  py                76      1.452595  2 O  pz         
   241     -1.336430  5 O  pz               130      1.254295  3 O  py         
   184     -0.620345  4 O  px                74     -0.615979  2 O  px         
    75      0.605815  2 O  py                58      0.534434  1 P  fyzz       
   129      0.460345  3 O  px               131     -0.460301  3 O  pz         

 Vector   38  Occ=0.000000D+00  E= 4.349495D-01
              MO Center= -8.7D-04, -1.5D-01, -1.5D-01, r^2= 1.4D+01
   Bfn.  Coefficient  Atom+Function         Bfn.  Coefficient  Atom+Function  
  ----- ------------  ---------------      ----- ------------  ---------------
   240      1.449427  5 O  py               131     -1.279552  3 O  pz         
    74      1.109095  2 O  px               184      1.102352  4 O  px         
   185     -0.879855  4 O  py               129     -0.828796  3 O  px         
   239     -0.824416  5 O  px                76      0.811175  2 O  pz         
   130     -0.727278  3 O  py                75      0.339161  2 O  py         

 Vector   39  Occ=0.000000D+00  E= 4.369503D-01
              MO Center= -5.0D-05,  1.3D-04, -3.4D-02, r^2= 9.0D+00
   Bfn.  Coefficient  Atom+Function         Bfn.  Coefficient  Atom+Function  
  ----- ------------  ---------------      ----- ------------  ---------------
     5     12.129142  1 P  s                  6      9.202176  1 P  s          
    34     -2.901994  1 P  dxx               37     -2.890088  1 P  dyy        
    39     -2.894970  1 P  dzz              183      2.643147  4 O  pz         
    63     -2.593740  2 O  s                118     -2.593463  3 O  s          
   173     -2.593440  4 O  s                228     -2.593694  5 O  s          

 Vector   40  Occ=0.000000D+00  E= 4.419709D-01
              MO Center= -2.3D-04, -2.5D-03, -3.5D-02, r^2= 1.6D+01
   Bfn.  Coefficient  Atom+Function         Bfn.  Coefficient  Atom+Function  
  ----- ------------  ---------------      ----- ------------  ---------------
    16      3.843781  1 P  px                18     -3.191229  1 P  pz         
    19      2.857102  1 P  px                21     -2.371994  1 P  pz         
    17      2.281318  1 P  py                20      1.697320  1 P  py         
    74     -1.682551  2 O  px               184     -1.683145  4 O  px         
   129     -1.566543  3 O  px               239     -1.566134  5 O  px         

 Vector   41  Occ=0.000000D+00  E= 4.419760D-01
              MO Center=  4.9D-04,  7.8D-04, -3.2D-02, r^2= 1.6D+01
   Bfn.  Coefficient  Atom+Function         Bfn.  Coefficient  Atom+Function  
  ----- ------------  ---------------      ----- ------------  ---------------
    16      3.924248  1 P  px                18      3.118273  1 P  pz         
    19      2.916488  1 P  px                21      2.318035  1 P  pz         
    17     -2.246878  1 P  py                74     -1.717359  2 O  px         
   184     -1.716301  4 O  px                20     -1.670651  1 P  py         
   129     -1.599869  3 O  px               239     -1.599221  5 O  px         

 Vector   42  Occ=0.000000D+00  E= 4.434023D-01
              MO Center=  2.0D-04, -6.4D-04, -3.4D-02, r^2= 1.6D+01
   Bfn.  Coefficient  Atom+Function         Bfn.  Coefficient  Atom+Function  
  ----- ------------  ---------------      ----- ------------  ---------------
    17      4.566195  1 P  py                20      3.334465  1 P  py         
    18      3.280553  1 P  pz                21      2.394028  1 P  pz         
   185     -2.046778  4 O  py                51     -1.926185  1 P  fxxy       
   130     -1.910617  3 O  py               240     -1.911511  5 O  py         
    75     -1.775134  2 O  py                76     -1.561034  2 O  pz         

 Vector   43  Occ=0.000000D+00  E= 4.810431D-01
              MO Center= -5.3D-04,  2.2D-01,  1.2D-01, r^2= 8.3D+00
   Bfn.  Coefficient  Atom+Function         Bfn.  Coefficient  Atom+Function  
  ----- ------------  ---------------      ----- ------------  ---------------
   119      9.002744  3 O  s                229     -8.970664  5 O  s          
    16     -7.852292  1 P  px                35      5.425533  1 P  dxy        
    36      3.895370  1 P  dxz              129     -2.744012  3 O  px         
   239     -2.742543  5 O  px                54     -1.904100  1 P  fxyz       
    55      1.709523  1 P  fxzz              74     -1.684040  2 O  px         

 Vector   44  Occ=0.000000D+00  E= 4.810607D-01
              MO Center= -7.7D-04, -2.2D-01, -1.9D-01, r^2= 8.3D+00
   Bfn.  Coefficient  Atom+Function         Bfn.  Coefficient  Atom+Function  
  ----- ------------  ---------------      ----- ------------  ---------------
   174     -9.022630  4 O  s                 64      8.952103  2 O  s          
    18      6.403492  1 P  pz                17     -4.546078  1 P  py         
    39      3.176820  1 P  dzz               37     -3.159510  1 P  dyy        
   186      2.693611  4 O  pz                75     -2.221003  2 O  py         
    38      2.111718  1 P  dyz               52     -1.945587  1 P  fxxz       

 Vector   45  Occ=0.000000D+00  E= 4.827389D-01
              MO Center=  1.9D-03, -2.6D-03, -3.2D-02, r^2= 8.5D+00
   Bfn.  Coefficient  Atom+Function         Bfn.  Coefficient  Atom+Function  
  ----- ------------  ---------------      ----- ------------  ---------------
    17      6.846628  1 P  py                64     -6.710027  2 O  s          
   229      6.695919  5 O  s                119      6.634725  3 O  s          
   174     -6.616199  4 O  s                 18      4.867060  1 P  pz         
    34     -3.455340  1 P  dxx               38     -3.287790  1 P  dyz        
    75      2.321532  2 O  py                39      2.265952  1 P  dzz        

 Vector   46  Occ=0.000000D+00  E= 5.278314D-01
              MO Center=  9.1D-04,  2.7D-01,  1.6D-01, r^2= 1.1D+01
   Bfn.  Coefficient  Atom+Function         Bfn.  Coefficient  Atom+Function  
  ----- ------------  ---------------      ----- ------------  ---------------
    64      5.798256  2 O  s                174     -5.804342  4 O  s          
    18      4.039686  1 P  pz                17     -2.894447  1 P  py         
   186      2.596283  4 O  pz               119      2.504580  3 O  s          
   229     -2.499845  5 O  s                 75     -2.379060  2 O  py         
    16     -2.126905  1 P  px                59     -1.406620  1 P  fzzz       

 Vector   47  Occ=0.000000D+00  E= 5.278439D-01
              MO Center= -1.0D-03, -2.7D-01, -2.2D-01, r^2= 1.1D+01
   Bfn.  Coefficient  Atom+Function         Bfn.  Coefficient  Atom+Function  
  ----- ------------  ---------------      ----- ------------  ---------------
   119      5.804413  3 O  s                229     -5.811723  5 O  s          
    16     -4.977226  1 P  px                64     -2.507541  2 O  s          
   174      2.511271  4 O  s                129     -2.250411  3 O  px         
   239     -2.256990  5 O  px                54      1.961366  1 P  fxyz       
    35     -1.837323  1 P  dxy               18     -1.735326  1 P  pz         

 Vector   48  Occ=0.000000D+00  E= 5.288459D-01
              MO Center=  6.3D-04, -5.1D-05, -3.4D-02, r^2= 1.1D+01
   Bfn.  Coefficient  Atom+Function         Bfn.  Coefficient  Atom+Function  
  ----- ------------  ---------------      ----- ------------  ---------------
    17      4.475425  1 P  py                64     -4.469284  2 O  s          
   119      4.460911  3 O  s                174     -4.461631  4 O  s          
   229      4.454485  5 O  s                 18      3.211541  1 P  pz         
    75      1.991446  2 O  py               186      1.993043  4 O  pz         
    51     -1.977114  1 P  fxxy             129     -1.435546  3 O  px         

 Vector   49  Occ=0.000000D+00  E= 5.339820D-01
              MO Center=  1.2D-04, -1.0D-04, -3.3D-02, r^2= 6.4D+00
   Bfn.  Coefficient  Atom+Function         Bfn.  Coefficient  Atom+Function  
  ----- ------------  ---------------      ----- ------------  ---------------
     6     11.353121  1 P  s                 34     -8.213169  1 P  dxx        
    37     -8.180877  1 P  dyy               39     -8.193783  1 P  dzz        
    64      5.083728  2 O  s                119      5.105732  3 O  s          
   174      5.082827  4 O  s                229      5.101187  5 O  s          
     5     -4.625035  1 P  s                 63     -1.973654  2 O  s          

 Vector   50  Occ=0.000000D+00  E= 5.750589D-01
              MO Center= -2.4D-04,  6.5D-03, -2.9D-02, r^2= 7.0D+00
   Bfn.  Coefficient  Atom+Function         Bfn.  Coefficient  Atom+Function  
  ----- ------------  ---------------      ----- ------------  ---------------
    16      8.894690  1 P  px               119     -8.127898  3 O  s          
   229      8.050232  5 O  s                174      6.874701  4 O  s          
    64     -6.794939  2 O  s                 18     -6.172565  1 P  pz         
    35     -4.663790  1 P  dxy               17      4.344526  1 P  py         
    36     -3.360171  1 P  dxz               39     -2.302230  1 P  dzz        

 Vector   51  Occ=0.000000D+00  E= 5.750941D-01
              MO Center=  2.2D-04, -7.4D-03, -3.9D-02, r^2= 7.0D+00
   Bfn.  Coefficient  Atom+Function         Bfn.  Coefficient  Atom+Function  
  ----- ------------  ---------------      ----- ------------  ---------------
    64      8.067184  2 O  s                174     -8.092624  4 O  s          
    16      7.551095  1 P  px                18      7.222084  1 P  pz         
   119     -6.816028  3 O  s                229      6.846902  5 O  s          
    17     -5.178187  1 P  py                35     -3.930427  1 P  dxy        
    36     -2.812268  1 P  dxz               37     -2.715341  1 P  dyy        

 Vector   52  Occ=0.000000D+00  E= 5.770843D-01
              MO Center=  5.8D-04, -1.1D-03, -3.3D-02, r^2= 6.8D+00
   Bfn.  Coefficient  Atom+Function         Bfn.  Coefficient  Atom+Function  
  ----- ------------  ---------------      ----- ------------  ---------------
    17      9.140100  1 P  py                64     -7.361851  2 O  s          
   229      7.317339  5 O  s                119      7.257971  3 O  s          
   174     -7.256230  4 O  s                 18      6.493252  1 P  pz         
    34     -3.662509  1 P  dxx               38     -3.491993  1 P  dyz        
    57     -2.505543  1 P  fyyz              39      2.415594  1 P  dzz        

 Vector   53  Occ=0.000000D+00  E= 5.973690D-01
              MO Center=  1.3D-04, -8.6D-04, -3.4D-02, r^2= 1.3D+01
   Bfn.  Coefficient  Atom+Function         Bfn.  Coefficient  Atom+Function  
  ----- ------------  ---------------      ----- ------------  ---------------
     5     36.289052  1 P  s                 64    -17.785776  2 O  s          
   119    -17.792383  3 O  s                174    -17.780437  4 O  s          
   229    -17.793270  5 O  s                 34     14.351971  1 P  dxx        
    37     14.371427  1 P  dyy               39     14.359799  1 P  dzz        
     6     -6.780337  1 P  s                186      4.262388  4 O  pz         

 Vector   54  Occ=0.000000D+00  E= 6.264464D-01
              MO Center=  1.2D-05, -4.6D-04, -3.4D-02, r^2= 9.2D+00
   Bfn.  Coefficient  Atom+Function         Bfn.  Coefficient  Atom+Function  
  ----- ------------  ---------------      ----- ------------  ---------------
    36      6.679665  1 P  dxz               35     -4.799623  1 P  dxy        
    24      1.630139  1 P  dxz               71      1.565560  2 O  px         
   181     -1.565538  4 O  px                74      1.437001  2 O  px         
   184     -1.436314  4 O  px               128     -1.270171  3 O  pz         
   238      1.273415  5 O  pz                23     -1.170893  1 P  dxy        

 Vector   55  Occ=0.000000D+00  E= 6.303538D-01
              MO Center=  9.7D-05, -3.2D-04, -3.4D-02, r^2= 9.2D+00
   Bfn.  Coefficient  Atom+Function         Bfn.  Coefficient  Atom+Function  
  ----- ------------  ---------------      ----- ------------  ---------------
    38      6.783763  1 P  dyz               37      2.393576  1 P  dyy        
    34     -2.326877  1 P  dxx               26      1.656390  1 P  dyz        
   182     -1.586022  4 O  py                73     -1.465357  2 O  pz         
   185     -1.438084  4 O  py                76     -1.358556  2 O  pz         
   237      1.105670  5 O  py               127      1.099182  3 O  py         

 Vector   56  Occ=0.000000D+00  E= 6.542312D-01
              MO Center=  1.1D-03,  2.3D-02, -1.5D-02, r^2= 1.0D+01
   Bfn.  Coefficient  Atom+Function         Bfn.  Coefficient  Atom+Function  
  ----- ------------  ---------------      ----- ------------  ---------------
    16     22.042540  1 P  px                18    -20.080931  1 P  pz         
    17     14.280862  1 P  py               174      8.706077  4 O  s          
    64     -8.662600  2 O  s                119     -7.825555  3 O  s          
   229      7.784927  5 O  s                 55     -7.026444  1 P  fxzz       
    50     -6.863463  1 P  fxxx              53     -6.867159  1 P  fxyy       

 Vector   57  Occ=0.000000D+00  E= 6.542692D-01
              MO Center=  6.8D-04, -2.5D-02, -5.1D-02, r^2= 1.0D+01
   Bfn.  Coefficient  Atom+Function         Bfn.  Coefficient  Atom+Function  
  ----- ------------  ---------------      ----- ------------  ---------------
    16     24.645818  1 P  px                18     17.883624  1 P  pz         
    17    -12.892307  1 P  py               119     -8.685889  3 O  s          
   229      8.685222  5 O  s                 55     -7.850486  1 P  fxzz       
    64      7.802308  2 O  s                174     -7.806722  4 O  s          
    50     -7.675333  1 P  fxxx              53     -7.677556  1 P  fxyy       

 Vector   58  Occ=0.000000D+00  E= 6.557081D-01
              MO Center= -7.4D-04, -5.0D-04, -3.5D-02, r^2= 1.0D+01
   Bfn.  Coefficient  Atom+Function         Bfn.  Coefficient  Atom+Function  
  ----- ------------  ---------------      ----- ------------  ---------------
    17     26.963883  1 P  py                18     19.290505  1 P  pz         
    58     -8.624023  1 P  fyzz              56     -8.458944  1 P  fyyy       
    64     -8.321194  2 O  s                119      8.280664  3 O  s          
   229      8.318668  5 O  s                174     -8.273628  4 O  s          
    51     -8.158580  1 P  fxxy              57     -6.482793  1 P  fyyz       

 Vector   59  Occ=0.000000D+00  E= 7.905945D-01
              MO Center=  1.8D-04, -6.7D-04, -3.4D-02, r^2= 4.9D+00
   Bfn.  Coefficient  Atom+Function         Bfn.  Coefficient  Atom+Function  
  ----- ------------  ---------------      ----- ------------  ---------------
    36      2.885422  1 P  dxz               35     -2.072378  1 P  dxy        
    24      1.510877  1 P  dxz               90     -1.270933  2 O  dxy        
   201      1.201879  4 O  dxz               23     -1.084904  1 P  dxy        
    71      0.779585  2 O  px               181     -0.780155  4 O  px         
    74      0.733027  2 O  px               184     -0.733174  4 O  px         

 Vector   60  Occ=0.000000D+00  E= 7.947318D-01
              MO Center=  1.9D-04, -6.4D-04, -3.4D-02, r^2= 5.0D+00
   Bfn.  Coefficient  Atom+Function         Bfn.  Coefficient  Atom+Function  
  ----- ------------  ---------------      ----- ------------  ---------------
     5      4.678466  1 P  s                 34     -3.376594  1 P  dxx        
    38      2.820223  1 P  dyz               39     -2.361460  1 P  dzz        
     6      2.089212  1 P  s                 63     -1.985739  2 O  s          
   118     -1.984770  3 O  s                173     -1.985784  4 O  s          
   228     -1.984603  5 O  s                 64      1.796399  2 O  s          

 Vector   61  Occ=0.000000D+00  E= 7.989593D-01
              MO Center=  1.0D-04, -5.0D-04, -3.4D-02, r^2= 8.4D+00
   Bfn.  Coefficient  Atom+Function         Bfn.  Coefficient  Atom+Function  
  ----- ------------  ---------------      ----- ------------  ---------------
     5     28.547226  1 P  s                 37    -14.250148  1 P  dyy        
    39    -14.111733  1 P  dzz               34    -13.965153  1 P  dxx        
     6     12.244059  1 P  s                 63    -11.981251  2 O  s          
   118    -11.981170  3 O  s                173    -11.979644  4 O  s          
   228    -11.981811  5 O  s                 64     10.688059  2 O  s          

 Vector   62  Occ=0.000000D+00  E= 8.891545D-01
              MO Center=  7.2D-04, -9.5D-02, -1.1D-01, r^2= 5.8D+00
   Bfn.  Coefficient  Atom+Function         Bfn.  Coefficient  Atom+Function  
  ----- ------------  ---------------      ----- ------------  ---------------
    52      2.733355  1 P  fxxz             173      2.559720  4 O  s          
    39     -2.541616  1 P  dzz               37      2.509572  1 P  dyy        
    63     -2.518109  2 O  s                 51     -2.026597  1 P  fxxy       
    59     -1.857113  1 P  fzzz              56      1.753043  1 P  fyyy       
    27     -1.723050  1 P  dzz               25      1.701150  1 P  dyy        

 Vector   63  Occ=0.000000D+00  E= 8.891862D-01
              MO Center= -9.3D-04,  9.6D-02,  3.6D-02, r^2= 5.8D+00
   Bfn.  Coefficient  Atom+Function         Bfn.  Coefficient  Atom+Function  
  ----- ------------  ---------------      ----- ------------  ---------------
    54      6.847999  1 P  fxyz              35     -4.320479  1 P  dxy        
    36     -3.106240  1 P  dxz               23     -2.929011  1 P  dxy        
   118     -2.548745  3 O  s                228      2.531602  5 O  s          
    24     -2.105508  1 P  dxz               50      1.459913  1 P  fxxx       
    53      1.364560  1 P  fxyy              71      1.221180  2 O  px         

 Vector   64  Occ=0.000000D+00  E= 8.898110D-01
              MO Center=  7.4D-04, -2.8D-03, -3.1D-02, r^2= 5.8D+00
   Bfn.  Coefficient  Atom+Function         Bfn.  Coefficient  Atom+Function  
  ----- ------------  ---------------      ----- ------------  ---------------
    51      3.337850  1 P  fxxy              57     -3.273679  1 P  fyyz       
    34     -2.694507  1 P  dxx               38     -2.577520  1 P  dyz        
    52      2.452306  1 P  fxxz              63     -1.865955  2 O  s          
    22     -1.833794  1 P  dxx              228      1.839321  5 O  s          
   118      1.828974  3 O  s                173     -1.800943  4 O  s          

 Vector   65  Occ=0.000000D+00  E= 9.407515D-01
              MO Center=  3.3D-04, -4.1D-05, -3.3D-02, r^2= 7.3D+00
   Bfn.  Coefficient  Atom+Function         Bfn.  Coefficient  Atom+Function  
  ----- ------------  ---------------      ----- ------------  ---------------
    53      2.382694  1 P  fxyy              55     -2.384946  1 P  fxzz       
    54     -1.605903  1 P  fxyz              90      1.081530  2 O  dxy        
   201     -1.062589  4 O  dxz               74     -0.909905  2 O  px         
   184      0.911044  4 O  px               131     -0.740125  3 O  pz         
   241      0.739526  5 O  pz               256      0.590408  5 O  dxz        

 Vector   66  Occ=0.000000D+00  E= 9.440010D-01
              MO Center= -1.5D-04,  2.2D-03, -3.2D-02, r^2= 7.0D+00
   Bfn.  Coefficient  Atom+Function         Bfn.  Coefficient  Atom+Function  
  ----- ------------  ---------------      ----- ------------  ---------------
    58      2.100745  1 P  fyzz              53     -1.543657  1 P  fxyy       
    55     -1.258081  1 P  fxzz             203      0.904658  4 O  dyz        
    52      0.826448  1 P  fxxz              54     -0.820617  1 P  fxyz       
   185     -0.781648  4 O  py                50      0.773460  1 P  fxxx       
   240      0.765298  5 O  py                76      0.728497  2 O  pz         

 Vector   67  Occ=0.000000D+00  E= 9.440198D-01
              MO Center=  3.2D-04, -3.3D-03, -3.6D-02, r^2= 7.0D+00
   Bfn.  Coefficient  Atom+Function         Bfn.  Coefficient  Atom+Function  
  ----- ------------  ---------------      ----- ------------  ---------------
    58      1.937523  1 P  fyzz              53      1.663881  1 P  fxyy       
    55      1.356062  1 P  fxzz              54      0.919612  1 P  fxyz       
   203      0.836545  4 O  dyz               50     -0.831116  1 P  fxxx       
    52      0.791720  1 P  fxxz             130      0.785311  3 O  py         
   241     -0.735229  5 O  pz               185     -0.723216  4 O  py         

 Vector   68  Occ=0.000000D+00  E= 9.581732D-01
              MO Center=  9.5D-04, -1.2D-03, -3.2D-02, r^2= 6.1D+00
   Bfn.  Coefficient  Atom+Function         Bfn.  Coefficient  Atom+Function  
  ----- ------------  ---------------      ----- ------------  ---------------
    91      0.832050  2 O  dxz              200     -0.697397  4 O  dxy        
    71     -0.691959  2 O  px               181      0.693561  4 O  px         
   146     -0.687595  3 O  dxz              256     -0.685514  5 O  dxz        
    53      0.669862  1 P  fxyy              55     -0.670477  1 P  fxzz       
   128     -0.563871  3 O  pz               238      0.563248  5 O  pz         

 Vector   69  Occ=0.000000D+00  E= 9.597316D-01
              MO Center= -6.3D-04,  1.6D-01,  8.1D-02, r^2= 6.3D+00
   Bfn.  Coefficient  Atom+Function         Bfn.  Coefficient  Atom+Function  
  ----- ------------  ---------------      ----- ------------  ---------------
   182     -0.671214  4 O  py                73      0.641465  2 O  pz         
    93      0.644367  2 O  dyz              203     -0.597246  4 O  dyz        
   258     -0.598874  5 O  dyz              128     -0.586342  3 O  pz         
   237      0.569705  5 O  py               148      0.550921  3 O  dyz        
   256      0.482234  5 O  dxz              131      0.419722  3 O  pz         

 Vector   70  Occ=0.000000D+00  E= 9.597629D-01
              MO Center=  2.3D-04, -1.6D-01, -1.5D-01, r^2= 6.3D+00
   Bfn.  Coefficient  Atom+Function         Bfn.  Coefficient  Atom+Function  
  ----- ------------  ---------------      ----- ------------  ---------------
   148      0.836681  3 O  dyz              258     -0.802870  5 O  dyz        
   127     -0.619652  3 O  py               238      0.571247  5 O  pz         
    91     -0.498243  2 O  dxz              182      0.471519  4 O  py         
    71      0.454181  2 O  px               181      0.454855  4 O  px         
    53     -0.451769  1 P  fxyy              73     -0.452703  2 O  pz         

 Vector   71  Occ=0.000000D+00  E= 9.749952D-01
              MO Center=  7.3D-04, -1.9D-03, -3.4D-02, r^2= 5.5D+00
   Bfn.  Coefficient  Atom+Function         Bfn.  Coefficient  Atom+Function  
  ----- ------------  ---------------      ----- ------------  ---------------
    24      1.640186  1 P  dxz               36     -1.399860  1 P  dxz        
    23     -1.176225  1 P  dxy               35      1.003166  1 P  dxy        
    71     -0.889558  2 O  px               181      0.890688  4 O  px         
   128      0.722917  3 O  pz               238     -0.720700  5 O  pz         
    90     -0.660391  2 O  dxy              200      0.619988  4 O  dxy        

 Vector   72  Occ=0.000000D+00  E= 9.774627D-01
              MO Center=  9.1D-05,  1.6D-03, -3.2D-02, r^2= 9.3D+00
   Bfn.  Coefficient  Atom+Function         Bfn.  Coefficient  Atom+Function  
  ----- ------------  ---------------      ----- ------------  ---------------
   119     -3.363332  3 O  s                229      3.327401  5 O  s          
    16      3.203731  1 P  px               174      3.073209  4 O  s          
    64     -3.038292  2 O  s                 18     -2.399095  1 P  pz         
    17      1.693343  1 P  py                35     -1.657652  1 P  dxy        
    19      1.349738  1 P  px                36     -1.193727  1 P  dxz        

 Vector   73  Occ=0.000000D+00  E= 9.774696D-01
              MO Center= -8.5D-05, -2.4D-03, -3.5D-02, r^2= 9.3D+00
   Bfn.  Coefficient  Atom+Function         Bfn.  Coefficient  Atom+Function  
  ----- ------------  ---------------      ----- ------------  ---------------
    64      3.340275  2 O  s                174     -3.352854  4 O  s          
   119     -3.049228  3 O  s                229      3.064184  5 O  s          
    16      2.941679  1 P  px                18      2.601990  1 P  pz         
    17     -1.866335  1 P  py                35     -1.512179  1 P  dxy        
    19      1.238606  1 P  px                21      1.096849  1 P  pz         

 Vector   74  Occ=0.000000D+00  E= 9.784197D-01
              MO Center=  3.6D-04,  3.8D-03, -3.0D-02, r^2= 9.3D+00
   Bfn.  Coefficient  Atom+Function         Bfn.  Coefficient  Atom+Function  
  ----- ------------  ---------------      ----- ------------  ---------------
    64     -3.626956  2 O  s                229      3.612819  5 O  s          
   119      3.592201  3 O  s                174     -3.583437  4 O  s          
    17      3.546500  1 P  py                18      2.519938  1 P  pz         
    20      1.430738  1 P  py                34     -1.426854  1 P  dxx        
    38     -1.364228  1 P  dyz               72      1.100463  2 O  py         

 Vector   75  Occ=0.000000D+00  E= 9.794272D-01
              MO Center= -7.5D-05, -4.0D-03, -3.7D-02, r^2= 5.4D+00
   Bfn.  Coefficient  Atom+Function         Bfn.  Coefficient  Atom+Function  
  ----- ------------  ---------------      ----- ------------  ---------------
    26      1.655639  1 P  dyz               38     -1.298758  1 P  dyz        
   182      0.856814  4 O  py                73      0.848764  2 O  pz         
    22     -0.653518  1 P  dxx              126     -0.584769  3 O  px         
   236      0.584701  5 O  px                34      0.537822  1 P  dxx        
   127     -0.518827  3 O  py               237     -0.517989  5 O  py         

 Vector   76  Occ=0.000000D+00  E= 9.971341D-01
              MO Center=  2.3D-04, -1.4D-03, -3.4D-02, r^2= 7.2D+00
   Bfn.  Coefficient  Atom+Function         Bfn.  Coefficient  Atom+Function  
  ----- ------------  ---------------      ----- ------------  ---------------
     5     26.382624  1 P  s                 63     -8.838170  2 O  s          
   118     -8.837534  3 O  s                173     -8.837338  4 O  s          
   228     -8.837980  5 O  s                 51     -7.622225  1 P  fxxy       
     6     -6.696607  1 P  s                 52     -5.475367  1 P  fxxz       
    57     -5.359103  1 P  fyyz             183      5.055045  4 O  pz         

 Vector   77  Occ=0.000000D+00  E= 1.002082D+00
              MO Center=  1.5D-03,  3.9D-01,  2.5D-01, r^2= 7.2D+00
   Bfn.  Coefficient  Atom+Function         Bfn.  Coefficient  Atom+Function  
  ----- ------------  ---------------      ----- ------------  ---------------
    64      5.483975  2 O  s                174     -5.466103  4 O  s          
    18     -2.949855  1 P  pz                59      2.685944  1 P  fzzz       
    57      2.661816  1 P  fyyz              52      2.401881  1 P  fxxz       
    17      2.129574  1 P  py                56     -1.951929  1 P  fyyy       
    58     -1.881906  1 P  fyzz             186      1.835760  4 O  pz         

 Vector   78  Occ=0.000000D+00  E= 1.002110D+00
              MO Center= -3.4D-03, -3.9D-01, -3.2D-01, r^2= 7.2D+00
   Bfn.  Coefficient  Atom+Function         Bfn.  Coefficient  Atom+Function  
  ----- ------------  ---------------      ----- ------------  ---------------
   119      5.464364  3 O  s                229     -5.490126  5 O  s          
    16      3.638375  1 P  px                50     -3.287753  1 P  fxxx       
    53     -3.228112  1 P  fxyy              55     -3.101026  1 P  fxzz       
   129     -1.949242  3 O  px               239     -1.953730  5 O  px         
   118      1.519948  3 O  s                228     -1.525104  5 O  s          

 Vector   79  Occ=0.000000D+00  E= 1.003223D+00
              MO Center=  2.4D-03, -2.1D-03, -3.2D-02, r^2= 7.5D+00
   Bfn.  Coefficient  Atom+Function         Bfn.  Coefficient  Atom+Function  
  ----- ------------  ---------------      ----- ------------  ---------------
   119     -3.737298  3 O  s                174      3.739358  4 O  s          
    64      3.706831  2 O  s                229     -3.707417  5 O  s          
    17      3.243291  1 P  py                51     -2.700081  1 P  fxxy       
    56     -2.607749  1 P  fyyy              58     -2.556750  1 P  fyzz       
    18      2.347241  1 P  pz                52     -1.952113  1 P  fxxz       

 Vector   80  Occ=0.000000D+00  E= 1.064445D+00
              MO Center=  1.4D-04, -8.2D-04, -3.4D-02, r^2= 7.0D+00
   Bfn.  Coefficient  Atom+Function         Bfn.  Coefficient  Atom+Function  
  ----- ------------  ---------------      ----- ------------  ---------------
    36      4.064180  1 P  dxz               35     -2.919939  1 P  dxy        
    71      1.243287  2 O  px               181     -1.242969  4 O  px         
    91     -1.104660  2 O  dxz              128     -1.012972  3 O  pz         
   238      1.006613  5 O  pz               200      0.934486  4 O  dxy        
   146     -0.896377  3 O  dxz              256     -0.895761  5 O  dxz        

 Vector   81  Occ=0.000000D+00  E= 1.066742D+00
              MO Center=  2.1D-04, -4.9D-04, -3.4D-02, r^2= 7.0D+00
   Bfn.  Coefficient  Atom+Function         Bfn.  Coefficient  Atom+Function  
  ----- ------------  ---------------      ----- ------------  ---------------
    38      4.093246  1 P  dyz               37      1.665675  1 P  dyy        
   182     -1.243863  4 O  py                34     -1.183983  1 P  dxx        
    73     -1.182958  2 O  pz               148     -1.042548  3 O  dyz        
   258     -1.042180  5 O  dyz               26     -0.889655  1 P  dyz        
    93     -0.847684  2 O  dyz              127      0.817310  3 O  py         

 Vector   82  Occ=0.000000D+00  E= 1.099333D+00
              MO Center=  1.1D-04, -7.0D-04, -3.4D-02, r^2= 6.4D+00
   Bfn.  Coefficient  Atom+Function         Bfn.  Coefficient  Atom+Function  
  ----- ------------  ---------------      ----- ------------  ---------------
    51      3.998186  1 P  fxxy              52      2.874805  1 P  fxxz       
    17     -2.634353  1 P  py                56      2.548105  1 P  fyyy       
    59      2.338175  1 P  fzzz              18     -1.899128  1 P  pz         
    58      1.759153  1 P  fyzz             118      1.112378  3 O  s          
   228      1.112750  5 O  s                 63     -1.102571  2 O  s          

 Vector   83  Occ=0.000000D+00  E= 1.100614D+00
              MO Center=  2.8D-04,  6.7D-02,  1.4D-02, r^2= 6.3D+00
   Bfn.  Coefficient  Atom+Function         Bfn.  Coefficient  Atom+Function  
  ----- ------------  ---------------      ----- ------------  ---------------
    18      3.610359  1 P  pz                59     -3.530464  1 P  fzzz       
    57     -3.143949  1 P  fyyz              56      2.789486  1 P  fyyy       
    17     -2.600685  1 P  py                58      1.518218  1 P  fyzz       
    63     -1.452392  2 O  s                173      1.449322  4 O  s          
   202      1.245873  4 O  dyy               94     -1.196134  2 O  dzz        

 Vector   84  Occ=0.000000D+00  E= 1.100631D+00
              MO Center=  7.3D-05, -6.8D-02, -8.2D-02, r^2= 6.3D+00
   Bfn.  Coefficient  Atom+Function         Bfn.  Coefficient  Atom+Function  
  ----- ------------  ---------------      ----- ------------  ---------------
    16      4.410183  1 P  px                53     -3.910967  1 P  fxyy       
    50     -3.884808  1 P  fxxx              54     -3.633697  1 P  fxyz       
    55     -2.688738  1 P  fxzz             118      1.454600  3 O  s          
   228     -1.452471  5 O  s                145      1.344652  3 O  dxy        
   255      1.345452  5 O  dxy               23      1.318889  1 P  dxy        

 Vector   85  Occ=0.000000D+00  E= 1.110755D+00
              MO Center=  3.9D-04, -8.8D-04, -3.5D-02, r^2= 9.2D+00
   Bfn.  Coefficient  Atom+Function         Bfn.  Coefficient  Atom+Function  
  ----- ------------  ---------------      ----- ------------  ---------------
     5     45.102192  1 P  s                 64    -13.861452  2 O  s          
   119    -13.869184  3 O  s                174    -13.842883  4 O  s          
   229    -13.863372  5 O  s                 34      8.799667  1 P  dxx        
    37      8.768652  1 P  dyy               39      8.779212  1 P  dzz        
    63     -6.416967  2 O  s                118     -6.416229  3 O  s          

 Vector   86  Occ=0.000000D+00  E= 1.114334D+00
              MO Center=  3.3D-04, -1.7D-01, -1.5D-01, r^2= 8.4D+00
   Bfn.  Coefficient  Atom+Function         Bfn.  Coefficient  Atom+Function  
  ----- ------------  ---------------      ----- ------------  ---------------
    16     36.359988  1 P  px                18    -19.179652  1 P  pz         
   119    -14.262495  3 O  s                229     14.248098  5 O  s          
    55    -13.773336  1 P  fxzz              17     13.654306  1 P  py         
    50    -12.513446  1 P  fxxx              53    -12.504920  1 P  fxyy       
    64     -9.166641  2 O  s                174      9.202480  4 O  s          

 Vector   87  Occ=0.000000D+00  E= 1.114354D+00
              MO Center=  1.2D-03,  1.6D-01,  8.5D-02, r^2= 8.4D+00
   Bfn.  Coefficient  Atom+Function         Bfn.  Coefficient  Atom+Function  
  ----- ------------  ---------------      ----- ------------  ---------------
    18     29.476360  1 P  pz                16     23.550298  1 P  px         
    17    -21.275123  1 P  py                64     14.256043  2 O  s          
   174    -14.240569  4 O  s                 52    -12.257246  1 P  fxxz       
    57    -10.166171  1 P  fyyz              59     -9.765440  1 P  fzzz       
   119     -9.199007  3 O  s                229      9.168926  5 O  s          

 Vector   88  Occ=0.000000D+00  E= 1.117115D+00
              MO Center= -1.1D-03, -6.1D-04, -3.3D-02, r^2= 8.4D+00
   Bfn.  Coefficient  Atom+Function         Bfn.  Coefficient  Atom+Function  
  ----- ------------  ---------------      ----- ------------  ---------------
    17     35.211030  1 P  py                18     25.306600  1 P  pz         
    58    -13.487291  1 P  fyzz              56    -12.580310  1 P  fyyy       
    64    -11.986794  2 O  s                119     11.957548  3 O  s          
   174    -11.992793  4 O  s                229     12.004116  5 O  s          
    57    -11.417409  1 P  fyyz              51    -10.929680  1 P  fxxy       

 Vector   89  Occ=0.000000D+00  E= 1.221084D+00
              MO Center= -3.7D-05, -3.7D-04, -3.4D-02, r^2= 5.3D+00
   Bfn.  Coefficient  Atom+Function         Bfn.  Coefficient  Atom+Function  
  ----- ------------  ---------------      ----- ------------  ---------------
    55     -7.110423  1 P  fxzz              53      7.066657  1 P  fxyy       
    54     -4.786570  1 P  fxyz             181      2.334427  4 O  px         
    71     -2.321802  2 O  px               128     -1.898292  3 O  pz         
   238      1.894006  5 O  pz                91     -1.639854  2 O  dxz        
   200      1.447409  4 O  dxy              127      1.353293  3 O  py         

 Vector   90  Occ=0.000000D+00  E= 1.223025D+00
              MO Center=  7.6D-05, -3.8D-03, -3.6D-02, r^2= 5.3D+00
   Bfn.  Coefficient  Atom+Function         Bfn.  Coefficient  Atom+Function  
  ----- ------------  ---------------      ----- ------------  ---------------
    58      6.562117  1 P  fyzz              53      4.116443  1 P  fxyy       
    55      3.316662  1 P  fxzz              57     -2.479930  1 P  fyyz       
    50     -2.462518  1 P  fxxx              52      2.410396  1 P  fxxz       
    54      2.337118  1 P  fxyz             182     -2.195305  4 O  py         
[...]
   235     -6.360488  5 O  pz               124      5.468283  3 O  py         
   123      4.425764  3 O  px               233      4.430189  5 O  px         
    98     -4.002076  2 O  fxyy             210     -4.002546  4 O  fxzz       
    95     -3.970474  2 O  fxxx             100     -3.968895  2 O  fxzz       

 Vector  270  Occ=0.000000D+00  E= 1.413176D+01
              MO Center= -6.5D-05, -8.0D-02, -9.1D-02, r^2= 4.1D+00
   Bfn.  Coefficient  Atom+Function         Bfn.  Coefficient  Atom+Function  
  ----- ------------  ---------------      ----- ------------  ---------------
   125      7.431467  3 O  pz                68      6.126216  2 O  px         
   178      6.116321  4 O  px               234     -6.066328  5 O  py         
   235      5.290117  5 O  pz                70      4.968296  2 O  pz         
   179     -4.502274  4 O  py               128      4.078477  3 O  pz         
   152     -3.861021  3 O  fxxz             157     -3.821799  3 O  fyyz       

 Vector  271  Occ=0.000000D+00  E= 1.609771D+01
              MO Center=  1.4D-02, -3.7D-02,  1.8D-02, r^2= 3.9D+00
   Bfn.  Coefficient  Atom+Function         Bfn.  Coefficient  Atom+Function  
  ----- ------------  ---------------      ----- ------------  ---------------
   180      8.185309  4 O  pz               123     -7.062348  3 O  px         
   183      7.052097  4 O  pz               233      6.944930  5 O  px         
   126     -6.787818  3 O  px                69      6.662184  2 O  py         
   236      6.690790  5 O  px                57      5.440082  1 P  fyyz       
    72      5.342701  2 O  py                11      5.277454  1 P  py         

 Vector  272  Occ=0.000000D+00  E= 1.609867D+01
              MO Center= -1.9D-02,  6.3D-01,  3.5D-01, r^2= 3.3D+00
   Bfn.  Coefficient  Atom+Function         Bfn.  Coefficient  Atom+Function  
  ----- ------------  ---------------      ----- ------------  ---------------
    69     10.412023  2 O  py               180    -10.234317  4 O  pz         
    72      9.239568  2 O  py               183     -8.842930  4 O  pz         
    52     -5.612047  1 P  fxxz              96     -5.547478  2 O  fxxy       
   101     -5.533038  2 O  fyyy             103     -5.488748  2 O  fyzz       
   207      5.427466  4 O  fxxz             212      5.421567  4 O  fyyz       

 Vector  273  Occ=0.000000D+00  E= 1.609934D+01
              MO Center=  5.2D-03, -6.0D-01, -4.7D-01, r^2= 3.3D+00
   Bfn.  Coefficient  Atom+Function         Bfn.  Coefficient  Atom+Function  
  ----- ------------  ---------------      ----- ------------  ---------------
   123      8.176331  3 O  px               233      8.146802  5 O  px         
   126      6.589238  3 O  px               236      6.557462  5 O  px         
    10      6.350377  1 P  px               237      5.681300  5 O  py         
   234      5.637566  5 O  py                54     -5.330283  1 P  fxyz       
   124     -5.180450  3 O  py                55      5.035640  1 P  fxzz       

 Vector  274  Occ=0.000000D+00  E= 1.682861D+01
              MO Center=  1.0D-04, -4.7D-04, -3.4D-02, r^2= 3.8D+00
   Bfn.  Coefficient  Atom+Function         Bfn.  Coefficient  Atom+Function  
  ----- ------------  ---------------      ----- ------------  ---------------
     5     48.740371  1 P  s                183     18.367108  4 O  pz         
    63    -17.351622  2 O  s                 72     17.360641  2 O  py         
   118    -17.352173  3 O  s                173    -17.349212  4 O  s          
   228    -17.352806  5 O  s                126     14.988671  3 O  px         
   236    -15.022631  5 O  px                22      9.344331  1 P  dxx        

 Vector  275  Occ=0.000000D+00  E= 1.725884D+01
              MO Center=  4.1D-02, -4.0D-02,  2.2D-02, r^2= 2.9D+00
   Bfn.  Coefficient  Atom+Function         Bfn.  Coefficient  Atom+Function  
  ----- ------------  ---------------      ----- ------------  ---------------
   173      6.812282  4 O  s                118     -6.671820  3 O  s          
   228     -6.254599  5 O  s                 63      6.105059  2 O  s          
    57      3.551940  1 P  fyyz             171      3.330652  4 O  s          
   116     -3.260569  3 O  s                180      3.274137  4 O  pz         
   183      3.102894  4 O  pz                58      3.078841  1 P  fyzz       

 Vector  276  Occ=0.000000D+00  E= 1.725946D+01
              MO Center= -4.9D-02,  2.0D-01,  3.3D-02, r^2= 2.9D+00
   Bfn.  Coefficient  Atom+Function         Bfn.  Coefficient  Atom+Function  
  ----- ------------  ---------------      ----- ------------  ---------------
    63      7.441201  2 O  s                173     -6.863992  4 O  s          
   228     -5.974374  5 O  s                118      5.402535  3 O  s          
    61      3.633650  2 O  s                 69      3.457099  2 O  py         
    72      3.389737  2 O  py               171     -3.353463  4 O  s          
   180     -3.308805  4 O  pz               183     -3.143023  4 O  pz         

 Vector  277  Occ=0.000000D+00  E= 1.725972D+01
              MO Center=  8.7D-03, -1.6D-01, -1.6D-01, r^2= 2.9D+00
   Bfn.  Coefficient  Atom+Function         Bfn.  Coefficient  Atom+Function  
  ----- ------------  ---------------      ----- ------------  ---------------
   118      7.200370  3 O  s                228     -7.123447  5 O  s          
    63     -5.734027  2 O  s                173      5.650464  4 O  s          
   116      3.516215  3 O  s                226     -3.475582  5 O  s          
    55      3.007902  1 P  fxzz             138     -2.933501  3 O  dxx        
   141     -2.926158  3 O  dyy              248      2.901029  5 O  dxx        

 Vector  278  Occ=0.000000D+00  E= 1.761134D+01
              MO Center=  7.4D-05, -4.7D-04, -3.4D-02, r^2= 3.1D+00
   Bfn.  Coefficient  Atom+Function         Bfn.  Coefficient  Atom+Function  
  ----- ------------  ---------------      ----- ------------  ---------------
     5     40.686137  1 P  s                183     17.017278  4 O  pz         
     3     16.316774  1 P  s                 72     16.087577  2 O  py         
   126     13.887509  3 O  px               236    -13.919493  5 O  px         
     2     11.122339  1 P  s                204     -8.562312  4 O  dzz        
    63     -8.354830  2 O  s                118     -8.359823  3 O  s          

 Vector  279  Occ=0.000000D+00  E= 1.908329D+01
              MO Center=  2.6D-04, -8.5D-04, -3.4D-02, r^2= 4.2D+00
   Bfn.  Coefficient  Atom+Function         Bfn.  Coefficient  Atom+Function  
  ----- ------------  ---------------      ----- ------------  ---------------
     3     41.028816  1 P  s                  5    -34.410012  1 P  s          
     2     27.732272  1 P  s                  4     -7.422746  1 P  s          
    64     -7.328470  2 O  s                119     -7.329572  3 O  s          
   174     -7.328148  4 O  s                229     -7.329498  5 O  s          
    34      6.759034  1 P  dxx               37      6.760831  1 P  dyy        


   alpha - beta orbital overlaps 
   ----------------------------- 


   alpha      1      2      3      4      5      6      7      8      9     10
    beta      1      2      3      4      5      6      7      8      9     10
 overlap   1.000  0.996  0.997  0.999  0.999  1.000  1.000  1.000  1.000  1.000


   alpha     11     12     13     14     15     16     17     18     19     20
    beta     11     12     13     14     16     17     15     19     21     22
 overlap   0.999  0.999  1.000  1.000  0.997  0.996  1.000  1.000  0.739  0.739


   alpha     21     22     23     24     25     26     27     28     29     30
    beta     18     20     25     23     24     26     27     28     29     30
 overlap   1.000  1.000  1.000  0.944  0.944  0.996  0.996  1.000  1.000  0.919


   alpha     31     32     33     34     35     36     37     38     39     40
    beta     31     32     34     33     35     38     36     37     39     41
 overlap   0.919  0.998  1.000  1.000  1.000  1.000  0.992  0.992  1.000  0.987


   alpha     41     42     43     44     45     46     47     48     49     50
    beta     42     40     44     45     43     47     48     46     49     51
 overlap   0.987  1.000  0.997  0.996  0.999  0.999  0.999  1.000  1.000  0.997


   alpha     51     52     53     54     55     56     57     58     59     60
    beta     52     50     53     54     55     56     57     58     59     60
 overlap   0.999  0.998  1.000  0.995  0.995  1.000  1.000  1.000  1.000  0.997


   alpha     61     62     63     64     65     66     67     68     69     70
    beta     61     62     63     64     67     65     66     68     69     70
 overlap   0.997  1.000  1.000  1.000  0.993  0.998  0.998  0.993  0.997  0.997


   alpha     71     72     73     74     75     76     77     78     79     80
    beta     75     72     73     71     74     76     78     79     77     81
 overlap   1.000  0.973  0.973  0.998  0.999  0.999  0.997  0.996  0.997  0.792


   alpha     81     82     83     84     85     86     87     88     89     90
    beta     80     84     82     83     85     86     87     88     91     89
 overlap   0.792  0.999  1.000  1.000  1.000  1.000  1.000  1.000  0.999  1.000


   alpha     91     92     93     94     95     96     97     98     99    100
    beta     90     92     93     94     95     96     97     98     99    100
 overlap   0.999  0.999  1.000  0.999  1.000  1.000  0.999  1.000  1.000  1.000


   alpha    101    102    103    104    105    106    107    108    109    110
    beta    101    102    103    105    106    104    107    108    109    110
 overlap   0.996  0.996  1.000  0.997  0.996  0.999  1.000  1.000  1.000  1.000


   alpha    111    112    113    114    115    116    117    118    119    120
    beta    111    112    113    114    115    116    117    118    119    121
 overlap   0.998  0.998  0.998  0.999  1.000  0.998  0.994  0.994  0.995  0.997


   alpha    121    122    123    124    125    126    127    128    129    130
    beta    120    122    128    123    124    125    126    127    130    129
 overlap   0.996  1.000  1.000  0.985  0.972  0.964  0.970  0.970  0.986  0.986


   alpha    131    132    133    134    135    136    137    138    139    140
    beta    131    132    133    135    136    134    137    139    138    140
 overlap   1.000  0.982  0.982  0.998  0.998  1.000  0.992  0.990  0.997  0.989


   alpha    141    142    143    144    145    146    147    148    149    150
    beta    142    141    143    146    144    145    147    148    149    150
 overlap   0.991  0.999  1.000  1.000  0.999  0.999  1.000  0.999  0.999  0.999


   alpha    151    152    153    154    155    156    157    158    159    160
    beta    151    152    153    154    155    156    157    158    160    159
 overlap   1.000  0.999  0.990  0.990  0.999  1.000  0.985  0.985  1.000  1.000


   alpha    161    162    163    164    165    166    167    168    169    170
    beta    161    162    163    164    165    167    168    166    171    169
 overlap   0.998  0.990  0.990  1.000  1.000  0.998  0.999  0.998  1.000  0.999


   alpha    171    172    173    174    175    176    177    178    179    180
    beta    170    172    173    174    175    177    176    178    179    180
 overlap   0.999  1.000  1.000  1.000  1.000  0.999  0.999  0.998  0.992  0.993


   alpha    181    182    183    184    185    186    187    188    189    190
    beta    181    182    183    184    186    185    187    188    189    190
 overlap   0.964  0.958  0.990  0.965  0.999  0.964  1.000  0.865  0.865  1.000


   alpha    191    192    193    194    195    196    197    198    199    200
    beta    193    191    192    194    198    199    196    197    195    201
 overlap   0.961  0.997  0.963  1.000  1.000  1.000  0.976  0.976  1.000  0.972


   alpha    201    202    203    204    205    206    207    208    209    210
    beta    202    200    203    204    205    206    207    208    209    210
 overlap   0.972  1.000  1.000  0.999  0.999  0.999  0.999  0.997  0.999  0.997


   alpha    211    212    213    214    215    216    217    218    219    220
    beta    213    211    212    216    214    215    217    221    222    223
 overlap   1.000  0.999  0.999  1.000  0.999  0.999  0.999  0.966  0.993  0.995


   alpha    221    222    223    224    225    226    227    228    229    230
    beta    218    219    220    225    224    227    228    226    230    231
 overlap   0.999  0.991  0.972  1.000  0.999  0.998  0.998  0.998  0.998  0.998


   alpha    231    232    233    234    235    236    237    238    239    240
    beta    229    234    232    233    235    236    237    238    239    241
 overlap   0.999  0.999  0.995  0.995  1.000  0.999  0.997  0.996  0.994  0.999


   alpha    241    242    243    244    245    246    247    248    249    250
    beta    242    240    243    246    244    245    248    249    247    251
 overlap   0.999  1.000  1.000  1.000  0.997  0.998  0.998  0.998  1.000  1.000


   alpha    251    252    253    254    255    256    257    258    259    260
    beta    250    252    254    253    255    256    257    258    259    260
 overlap   0.999  1.000  0.949  0.956  0.993  0.908  0.907  0.999  1.000  1.000


   alpha    261    262    263    264    265    266    267    268    269    270
    beta    261    262    265    263    264    267    266    269    270    268
 overlap   1.000  1.000  1.000  1.000  1.000  0.998  0.998  1.000  1.000  1.000


   alpha    271    272    273    274    275    276    277    278    279
    beta    271    272    273    274    275    276    277    278    279
 overlap   1.000  1.000  1.000  1.000  1.000  1.000  1.000  1.000  1.000

     --------------------------
     Expectation value of S2:  
     --------------------------
      <S2> =      0.7551 (Exact =     0.7500)


 center of mass
 --------------
 x =   0.00034327 y =  -0.00122259 z =  -0.06364514

 moments of inertia (a.u.)
 ------------------
         394.267596919641           0.020993033242          -0.038389421955
           0.020993033242         394.412778959407           0.142062535234
          -0.038389421955           0.142062535234         394.324192308209

     Multipole analysis of the density
     ---------------------------------

     L   x y z        total         alpha         beta         nuclear
     -   - - -        -----         -----         ----         -------
     0   0 0 0     -2.000000    -25.000000    -24.000000     47.000000

     1   1 0 0     -0.001287     -0.008767     -0.008671      0.016151
     1   0 1 0      0.002080      0.030532      0.029026     -0.057478
     1   0 0 1      0.127590      1.590721      1.528153     -2.991284

     2   2 0 0    -40.125001    -71.207244    -67.566488     98.648732
     2   1 1 0      0.001414      0.006006      0.005927     -0.010520
     2   1 0 1     -0.001148     -0.009924     -0.009397      0.018173
     2   0 2 0    -40.263044    -71.144052    -67.695174     98.576182
     2   0 1 1     -0.096360      0.054082     -0.083047     -0.067396
     2   0 0 2    -40.203186    -71.281769    -67.732215     98.810798


 Task  times  cpu:       72.1s     wall:       73.9s


                                NWChem Input Module
                                -------------------


 Summary of allocated global arrays
-----------------------------------
  No active global arrays


MA_summarize_allocated_blocks: starting scan ...
heap block 'gridpts', handle 97, address 0x10adc268:
	type of elements:		double precision
	number of elements:		33554432
	address of client space:	0x10adc2c0
	index for client space:		10372017
	total number of bytes:		268435552
MA_summarize_allocated_blocks: scan completed: 1 heap block, 0 stack blocks
MA usage statistics:

	allocation statistics:
					      heap	     stack
					      ----	     -----
	current number of blocks	         1	         0
	maximum number of blocks	        21	        53
	current total bytes		 268435552	         0
	maximum total bytes		 269959568	  38091784
	maximum total K-bytes		    269960	     38092
	maximum total M-bytes		       270	        39


                                     CITATION
                                     --------
                Please cite the following reference when publishing
                           results obtained with NWChem:

          E. Apra, E. J. Bylaska, W. A. de Jong, N. Govind, K. Kowalski,
       T. P. Straatsma, M. Valiev, H. J. J. van Dam, Y. Alexeev, J. Anchell,
       V. Anisimov, F. W. Aquino, R. Atta-Fynn, J. Autschbach, N. P. Bauman,
     J. C. Becca, D. E. Bernholdt, K. Bhaskaran-Nair, S. Bogatko, P. Borowski,
         J. Boschen, J. Brabec, A. Bruner, E. Cauet, Y. Chen, G. N. Chuev,
      C. J. Cramer, J. Daily, M. J. O. Deegan, T. H. Dunning Jr., M. Dupuis,
   K. G. Dyall, G. I. Fann, S. A. Fischer, A. Fonari, H. Fruchtl, L. Gagliardi,
      J. Garza, N. Gawande, S. Ghosh, K. Glaesemann, A. W. Gotz, J. Hammond,
       V. Helms, E. D. Hermes, K. Hirao, S. Hirata, M. Jacquelin, L. Jensen,
   B. G. Johnson, H. Jonsson, R. A. Kendall, M. Klemm, R. Kobayashi, V. Konkov,
      S. Krishnamoorthy, M. Krishnan, Z. Lin, R. D. Lins, R. J. Littlefield,
      A. J. Logsdail, K. Lopata, W. Ma, A. V. Marenich, J. Martin del Campo,
   D. Mejia-Rodriguez, J. E. Moore, J. M. Mullin, T. Nakajima, D. R. Nascimento,
    J. A. Nichols, P. J. Nichols, J. Nieplocha, A. Otero-de-la-Roza, B. Palmer,
    A. Panyala, T. Pirojsirikul, B. Peng, R. Peverati, J. Pittner, L. Pollack,
   R. M. Richard, P. Sadayappan, G. C. Schatz, W. A. Shelton, D. W. Silverstein,
   D. M. A. Smith, T. A. Soares, D. Song, M. Swart, H. L. Taylor, G. S. Thomas,
            V. Tipparaju, D. G. Truhlar, K. Tsemekhman, T. Van Voorhis,
      A. Vazquez-Mayagoitia, P. Verma, O. Villa, A. Vishnu, K. D. Vogiatzis,
        D. Wang, J. H. Weare, M. J. Williamson, T. L. Windus, K. Wolinski,
        A. T. Wong, Q. Wu, C. Yang, Q. Yu, M. Zacharias, Z. Zhang, Y. Zhao,
                                and R. J. Harrison
                        "NWChem: Past, present, and future
                         J. Chem. Phys. 152, 184102 (2020)
                               doi:10.1063/5.0004997

                                      AUTHORS
                                      -------
  E. Apra, E. J. Bylaska, N. Govind, K. Kowalski, M. Valiev, D. Mejia-Rodriguez,
       A. Kunitsa, N. P. Bauman, A. Panyala, W. A. de Jong, T. P. Straatsma,
   H. J. J. van Dam, D. Wang, T. L. Windus, J. Hammond, J. Autschbach, A. Woods,
    K. Bhaskaran-Nair, J. Brabec, K. Lopata, S. A. Fischer, S. Krishnamoorthy,
     M. Jacquelin, W. Ma, M. Klemm, O. Villa, Y. Chen, V. Anisimov, F. Aquino,
     S. Hirata, M. T. Hackler, E. Hermes, L. Jensen, J. E. Moore, J. C. Becca,
      V. Konjkov, T. Risthaus, M. Malagoli, A. Marenich, A. Otero-de-la-Roza,
        J. Mullin, P. Nichols, R. Peverati, J. Pittner, Y. Zhao, P.-D. Fan,
        A. Fonari, M. J. Williamson, R. J. Harrison, J. R. Rehr, M. Dupuis,
     D. Silverstein, D. M. A. Smith, J. Nieplocha, V. Tipparaju, M. Krishnan,
     B. E. Van Kuiken, A. Vazquez-Mayagoitia, M. Swart, Q. Wu, T. Van Voorhis,
     A. A. Auer, M. Nooijen, L. D. Crosby, E. Brown, G. Cisneros, G. I. Fann,
   H. Fruchtl, J. Garza, K. Hirao, R. A. Kendall, J. A. Nichols, K. Tsemekhman,
    K. Wolinski, J. Anchell, D. E. Bernholdt, P. Borowski, T. Clark, D. Clerc,
   H. Dachsel, M. J. O. Deegan, K. Dyall, D. Elwood, E. Glendening, M. Gutowski,
   A. C. Hess, J. Jaffe, B. G. Johnson, J. Ju, R. Kobayashi, R. Kutteh, Z. Lin,
   R. Littlefield, X. Long, B. Meng, T. Nakajima, S. Niu, L. Pollack, M. Rosing,
   K. Glaesemann, G. Sandrone, M. Stave, H. Taylor, G. Thomas, J. H. van Lenthe,
                               A. T. Wong, Z. Zhang.

 Total times  cpu:       72.1s     wall:       74.1s
