 argument  1 = m1e/mol.nwi
                                         
                                         


             Northwest Computational Chemistry Package (NWChem) 7.2.2
             --------------------------------------------------------


                    Environmental Molecular Sciences Laboratory
                       Pacific Northwest National Laboratory
                                Richland, WA 99352

                              Copyright (c) 1994-2022
                       Pacific Northwest National Laboratory
                            Battelle Memorial Institute

             NWChem is an open-source computational chemistry package
                        distributed under the terms of the
                      Educational Community License (ECL) 2.0
             A copy of the license is included with this distribution
                              in the LICENSE.TXT file

                                  ACKNOWLEDGMENT
                                  --------------

            This software and its documentation were developed at the
            EMSL at Pacific Northwest National Laboratory, a multiprogram
            national laboratory, operated for the U.S. Department of Energy
            by Battelle under Contract Number DE-AC05-76RL01830. Support
            for this work was provided by the Department of Energy Office
            of Biological and Environmental Research, Office of Basic
            Energy Sciences, and the Office of Advanced Scientific Computing.


           Job information
           ---------------

    hostname        = r007.ib.bridges2.psc.edu
    program         = nwchem
    date            = Tue Oct  1 15:44:06 2024

    compiled        = Mon_Mar_18_17:03:37_2024
    source          = /ocean/projects/pscstaff/mmadrid/nwchem-7.2.2
    nwchem branch   = 7.2.2
    nwchem revision = 74936fb9
    ga revision     = 5.8.0
    use scalapack   = F
    input           = m1e/mol.nwi
    prefix          = dft.
    data base       = .//dft.db
    status          = startup
    nproc           =       15
    time left       =     -1s



           Memory information
           ------------------

    heap     =   67108864 doubles =    512.0 Mbytes
    stack    =   67108861 doubles =    512.0 Mbytes
    global   =  134217728 doubles =   1024.0 Mbytes (distinct from heap & stack)
    total    =  268435453 doubles =   2048.0 Mbytes
    verify   = yes
    hardfail = no 


           Directory information
           ---------------------

  0 permanent = ./
  0 scratch   = /jet/home/hmt47/nwchem_scratch/




                                NWChem Input Module
                                -------------------


  library name resolved from: environment
  library file name is: </opt/packages/nwchem/nwchem7.2.2/share/nwchem/libraries/>
  


 Summary of "ao basis" -> "" (cartesian)
 ------------------------------------------------------------------------------
       Tag                 Description            Shells   Functions and Types
 ---------------- ------------------------------  ------  ---------------------
 *                        aug-cc-pVTZ                 on all atoms 


  pbe96 is a nonlocal functional; adding pw91lda local functional. 

 Scaling coordinates for geometry "geometry" by  1.889725989
 (inverse scale =  0.529177249)



                             Geometry "geometry" -> ""
                             -------------------------

 Output coordinates in angstroms (scale by  1.889725989 to convert to a.u.)

  No.       Tag          Charge          X              Y              Z
 ---- ---------------- ---------- -------------- -------------- --------------
    1 F                    9.0000     0.00000000     0.00000000     0.00000000

      Atomic Mass 
      ----------- 

      F                 18.998400


 Effective nuclear repulsion energy (a.u.)       0.0000000000

            Nuclear Dipole moment (a.u.) 
            ----------------------------
        X                 Y               Z
 ---------------- ---------------- ----------------
     0.0000000000     0.0000000000     0.0000000000


            XYZ format geometry
            -------------------
     1
 geometry
 F                     0.00000000     0.00000000     0.00000000



                           NWChem Geometry Optimization
                           ----------------------------


 maximum gradient threshold         (gmax) =   0.000450
 rms gradient threshold             (grms) =   0.000300
 maximum cartesian step threshold   (xmax) =   0.001800
 rms cartesian step threshold       (xrms) =   0.001200
 fixed trust radius                (trust) =   0.300000
 maximum step size to saddle      (sadstp) =   0.100000
 energy precision                  (eprec) =   5.0D-06
 maximum number of steps          (nptopt) =   40
 initial hessian option           (inhess) =    0
 line search option               (linopt) =    1
 hessian update option            (modupd) =    1
 saddle point option              (modsad) =    0
 initial eigen-mode to follow     (moddir) =    0
 initial variable to follow       (vardir) =    0
 follow first negative mode     (firstneg) =    T
 apply conjugacy                    (opcg) =    F
 source of zmatrix                         =           


          -------------------
          Energy Minimization
          -------------------


 Using diagonal initial Hessian 

          --------
          Step   0
          --------


                         Geometry "geometry" -> "geometry"
                         ---------------------------------

 Output coordinates in angstroms (scale by  1.889725989 to convert to a.u.)

  No.       Tag          Charge          X              Y              Z
 ---- ---------------- ---------- -------------- -------------- --------------
    1 F                    9.0000     0.00000000     0.00000000     0.00000000

      Atomic Mass 
      ----------- 

      F                 18.998400


 Effective nuclear repulsion energy (a.u.)       0.0000000000

            Nuclear Dipole moment (a.u.) 
            ----------------------------
        X                 Y               Z
 ---------------- ---------------- ----------------
     0.0000000000     0.0000000000     0.0000000000


                                 NWChem DFT Module
                                 -----------------


                      Basis "ao basis" -> "ao basis" (cartesian)
                      -----
  F (Fluorine)
  ------------
            Exponent  Coefficients 
       -------------- ---------------------------------------------------------
  1 S  1.95000000E+04  0.000507
  1 S  2.92300000E+03  0.003923
  1 S  6.64500000E+02  0.020200
  1 S  1.87500000E+02  0.079010
  1 S  6.06200000E+01  0.230439
  1 S  2.14200000E+01  0.432872
  1 S  7.95000000E+00  0.349964
  1 S  8.81500000E-01 -0.007892

  2 S  1.95000000E+04 -0.000117
  2 S  2.92300000E+03 -0.000912
  2 S  6.64500000E+02 -0.004717
  2 S  1.87500000E+02 -0.019086
  2 S  6.06200000E+01 -0.059655
  2 S  2.14200000E+01 -0.140010
  2 S  7.95000000E+00 -0.176782
  2 S  8.81500000E-01  0.605043

  3 S  2.25700000E+00  1.000000

  4 S  3.04100000E-01  1.000000

  5 S  9.15800000E-02  1.000000

  6 P  4.38800000E+01  0.016665
  6 P  9.92600000E+00  0.104472
  6 P  2.93000000E+00  0.317260

  7 P  9.13200000E-01  1.000000

  8 P  2.67200000E-01  1.000000

  9 P  7.36100000E-02  1.000000

 10 D  3.10700000E+00  1.000000

 11 D  8.55000000E-01  1.000000

 12 D  2.92000000E-01  1.000000

 13 F  1.91700000E+00  1.000000

 14 F  7.24000000E-01  1.000000



 Summary of "ao basis" -> "ao basis" (cartesian)
 ------------------------------------------------------------------------------
       Tag                 Description            Shells   Functions and Types
 ---------------- ------------------------------  ------  ---------------------
 F                        aug-cc-pVTZ               14       55   5s4p3d2f




 Summary of "ao basis" -> "ao basis" (cartesian)
 ------------------------------------------------------------------------------
       Tag                 Description            Shells   Functions and Types
 ---------------- ------------------------------  ------  ---------------------
 F                        aug-cc-pVTZ               14       55   5s4p3d2f


  Caching 1-el integrals 

            General Information
            -------------------
          SCF calculation type: DFT
          Wavefunction type:  closed shell.
          No. of atoms     :     1
          No. of electrons :    10
           Alpha electrons :     5
            Beta electrons :     5
          Charge           :    -1
          Spin multiplicity:     1
          Use of symmetry is: off; symmetry adaption is: off
          Maximum number of iterations: 200
          AO basis - number of functions:    55
                     number of shells:    14
          Convergence on energy requested:  1.00D-06
          Convergence on density requested:  1.00D-05
          Convergence on gradient requested:  5.00D-04

              XC Information
              --------------
          PerdewBurkeErnzerhof Exchange Functional  1.000          
            Perdew 1991 LDA Correlation Functional  1.000 local    
           PerdewBurkeErnz. Correlation Functional  1.000 non-local

             Grid Information
             ----------------
          Grid used for XC integration:  medium    
          Radial quadrature: Mura-Knowles        
          Angular quadrature: Lebedev. 
          Tag              B.-S. Rad. Rad. Pts. Rad. Cut. Ang. Pts.
          ---              ---------- --------- --------- ---------
          F                   0.50       49           6.0       434
          Grid pruning is: on 
          Number of quadrature shells:    49
          Spatial weights used:  Erf1

          Convergence Information
          -----------------------
          Convergence aids based upon iterative change in 
          total energy or number of iterations. 
          Levelshifting, if invoked, occurs when the 
          HOMO/LUMO gap drops below (HL_TOL):  1.00D-02
          DIIS, if invoked, will attempt to extrapolate 
          using up to (NFOCK): 10 stored Fock matrices.

                    Damping(40%)  Levelshifting(0.0)       DIIS
                  --------------- ------------------- ---------------
          dE  on:    start            0.00D+00            start   
          dE off:  200 iters          0.00D+00          200 iters 


      Screening Tolerance Information
      -------------------------------
          Density screening/tol_rho:  1.00D-10
          AO Gaussian exp screening on grid/accAOfunc:  14
          CD Gaussian exp screening on grid/accCDfunc:  20
          XC Gaussian exp screening on grid/accXCfunc:  20
          Schwarz screening/accCoul:  1.00D-08


 Forcing the number of linearly dependent vectors to be  0

      Superposition of Atomic Density Guess
      -------------------------------------

 Sum of atomic energies:         -99.41279054
   Time after variat. SCF:      0.3
   Time prior to 1st pass:      0.3

 Grid_pts file          = /jet/home/hmt47/nwchem_scratch//dft.gridpts.00
 Record size in doubles =  12289        No. of grid_pts per rec  =   3070
 Max. records in memory =      2        Max. recs in file   =  67550051

 Grid integrated density:       9.000000000356
 Requested integration accuracy:   0.10E-05

           Memory utilization after 1st SCF pass: 
           Heap Space remaining (MW):       33.53            33527888
          Stack Space remaining (MW):       67.11            67108468

   convergence    iter        energy       DeltaE   RMS-Dens  Diis-err    time
 ---------------- ----- ----------------- --------- --------- ---------  ------
 d=40,ls=0.0,diis     1    -99.6338096773 -9.96D+01  6.88D-03  2.52D-01     0.3
 Grid integrated density:       9.599999988259
 Requested integration accuracy:   0.10E-05
 d=40,ls=0.0,diis     2    -99.7386026112 -1.05D-01  4.28D-03  4.71D-01     0.3
 Grid integrated density:       9.839999962510
 Requested integration accuracy:   0.10E-05
 d=40,ls=0.0,diis     3    -99.7546415986 -1.60D-02  8.69D-03  3.85D-01     0.4
 Grid integrated density:       9.935999799877
 Requested integration accuracy:   0.10E-05
 d=40,ls=0.0,diis     4    -99.7910766996 -3.64D-02  2.60D-03  1.65D-02     0.4
 Grid integrated density:       9.974399759040
 Requested integration accuracy:   0.10E-05
 d=40,ls=0.0,diis     5    -99.7974009497 -6.32D-03  8.16D-04  9.83D-04     0.4
 Grid integrated density:       9.989759748667
 Requested integration accuracy:   0.10E-05
  Resetting Diis
 d=40,ls=0.0,diis     6    -99.7996061756 -2.21D-03  2.74D-04  7.19D-05     0.4
 Grid integrated density:       9.995903745991
 Requested integration accuracy:   0.10E-05
 d=40,ls=0.0,diis     7    -99.8004666382 -8.60D-04  5.72D-05  1.95D-05     0.4
 Grid integrated density:       9.998361348142
 Requested integration accuracy:   0.10E-05
 d=40,ls=0.0,diis     8    -99.8008060520 -3.39D-04  6.17D-05  3.93D-05     0.5
 Grid integrated density:       9.999344387237
 Requested integration accuracy:   0.10E-05
 d=40,ls=0.0,diis     9    -99.8009453834 -1.39D-04  5.70D-05  8.59D-06     0.5
 Grid integrated density:       9.999737602021
 Requested integration accuracy:   0.10E-05
 d=40,ls=0.0,diis    10    -99.8010009684 -5.56D-05  7.61D-06  7.74D-08     0.5
 Grid integrated density:       9.999894888338
 Requested integration accuracy:   0.10E-05
 d=40,ls=0.0,diis    11    -99.8010230360 -2.21D-05  2.61D-06  1.53D-08     0.5
 Grid integrated density:       9.999957802877
 Requested integration accuracy:   0.10E-05
 d=40,ls=0.0,diis    12    -99.8010318619 -8.83D-06  1.12D-06  2.20D-09     0.5
 Grid integrated density:       9.999982968691
 Requested integration accuracy:   0.10E-05
  Singularity in Pulay matrix. Error and Fock matrices removed. 
 d=40,ls=0.0,diis    13    -99.8010353919 -3.53D-06  4.46D-07  3.53D-10     0.6
  Singularity in Pulay matrix. Error and Fock matrices removed. 
  Singularity in Pulay matrix. Error and Fock matrices removed. 
  Singularity in Pulay matrix. Error and Fock matrices removed. 
  Singularity in Pulay matrix. Error and Fock matrices removed. 
 d=40,ls=0.0,diis    14    -99.8010368038 -1.41D-06  1.78D-07  5.65D-11     0.6
  Singularity in Pulay matrix. Error and Fock matrices removed. 
  Singularity in Pulay matrix. Error and Fock matrices removed. 
 d=40,ls=0.0,diis    15    -99.8010373686 -5.65D-07  7.13D-08  9.04D-12     0.6


         Total DFT energy =      -99.801037368591
      One electron energy =     -143.543818948672
           Coulomb energy =       54.281100107478
    Exchange-Corr. energy =      -10.538318527397
 Nuclear repulsion energy =        0.000000000000

 Numeric. integr. density =        9.999997061546

     Total iterative time =      0.3s



                       DFT Final Molecular Orbital Analysis
                       ------------------------------------

 Vector    1  Occ=2.000000D+00  E=-2.382904D+01
              MO Center=  1.6D-18,  1.9D-17, -5.1D-19, r^2= 1.2D-02
   Bfn.  Coefficient  Atom+Function         Bfn.  Coefficient  Atom+Function  
  ----- ------------  ---------------      ----- ------------  ---------------
     1      0.971558  1 F  s                  3      0.057589  1 F  s          

 Vector    2  Occ=2.000000D+00  E=-6.131234D-01
              MO Center=  2.5D-15, -2.0D-15,  6.4D-17, r^2= 3.7D-01
   Bfn.  Coefficient  Atom+Function         Bfn.  Coefficient  Atom+Function  
  ----- ------------  ---------------      ----- ------------  ---------------
     2      0.537607  1 F  s                  4      0.414388  1 F  s          
     3      0.164564  1 F  s                  5      0.047207  1 F  s          

 Vector    3  Occ=2.000000D+00  E= 5.697034D-02
              MO Center= -3.5D-16,  6.6D-16, -6.1D-16, r^2= 7.2D-01
   Bfn.  Coefficient  Atom+Function         Bfn.  Coefficient  Atom+Function  
  ----- ------------  ---------------      ----- ------------  ---------------
     6      0.297855  1 F  px                 9      0.285011  1 F  px         
    12      0.235980  1 F  px                 7     -0.209883  1 F  py         
    10     -0.200833  1 F  py                13     -0.166283  1 F  py         
    15      0.148358  1 F  px                 8      0.123037  1 F  pz         
    11      0.117731  1 F  pz                16     -0.104540  1 F  py         

 Vector    4  Occ=2.000000D+00  E= 5.697034D-02
              MO Center= -2.9D-16,  3.6D-16, -2.4D-16, r^2= 7.2D-01
   Bfn.  Coefficient  Atom+Function         Bfn.  Coefficient  Atom+Function  
  ----- ------------  ---------------      ----- ------------  ---------------
     8      0.347431  1 F  pz                11      0.332448  1 F  pz         
    14      0.275257  1 F  pz                17      0.173051  1 F  pz         
     7      0.162327  1 F  py                10      0.155327  1 F  py         
    13      0.128606  1 F  py                16      0.080853  1 F  py         
     6     -0.029132  1 F  px                 9     -0.027875  1 F  px         

 Vector    5  Occ=2.000000D+00  E= 5.697034D-02
              MO Center=  2.9D-15,  3.1D-15, -1.3D-15, r^2= 7.2D-01
   Bfn.  Coefficient  Atom+Function         Bfn.  Coefficient  Atom+Function  
  ----- ------------  ---------------      ----- ------------  ---------------
     7      0.278398  1 F  py                10      0.266393  1 F  py         
     6      0.241538  1 F  px                 9      0.231122  1 F  px         
    13      0.220565  1 F  py                12      0.191362  1 F  px         
    16      0.138667  1 F  py                15      0.120307  1 F  px         
     8     -0.109821  1 F  pz                11     -0.105085  1 F  pz         

 Vector    6  Occ=0.000000D+00  E= 2.999136D-01
              MO Center=  7.3D-14,  3.3D-13, -1.8D-14, r^2= 4.4D+00
   Bfn.  Coefficient  Atom+Function         Bfn.  Coefficient  Atom+Function  
  ----- ------------  ---------------      ----- ------------  ---------------
     5      2.204233  1 F  s                 30     -0.564415  1 F  dxx        
    33     -0.564415  1 F  dyy               35     -0.564415  1 F  dzz        
     2     -0.366672  1 F  s                  4      0.333396  1 F  s          
     3     -0.272954  1 F  s                 24     -0.235662  1 F  dxx        
    27     -0.235662  1 F  dyy               29     -0.235662  1 F  dzz        

 Vector    7  Occ=0.000000D+00  E= 3.298200D-01
              MO Center=  1.3D-13, -1.3D-13,  1.0D-14, r^2= 5.7D+00
   Bfn.  Coefficient  Atom+Function         Bfn.  Coefficient  Atom+Function  
  ----- ------------  ---------------      ----- ------------  ---------------
    16     -0.881416  1 F  py                15      0.853598  1 F  px         
    13      0.506051  1 F  py                12     -0.490080  1 F  px         
    10      0.147854  1 F  py                 9     -0.143187  1 F  px         
    47     -0.113491  1 F  fxxy              52     -0.113491  1 F  fyyy       
    54     -0.113491  1 F  fyzz              46      0.109909  1 F  fxxx       

 Vector    8  Occ=0.000000D+00  E= 3.298200D-01
              MO Center= -1.8D-13, -1.8D-13, -7.9D-14, r^2= 5.7D+00
   Bfn.  Coefficient  Atom+Function         Bfn.  Coefficient  Atom+Function  
  ----- ------------  ---------------      ----- ------------  ---------------
    15      0.827663  1 F  px                16      0.829754  1 F  py         
    12     -0.475190  1 F  px                13     -0.476390  1 F  py         
    17      0.369508  1 F  pz                14     -0.212147  1 F  pz         
     9     -0.138837  1 F  px                10     -0.139188  1 F  py         
    46      0.106570  1 F  fxxx              47      0.106839  1 F  fxxy       

 Vector    9  Occ=0.000000D+00  E= 3.298200D-01
              MO Center= -2.3D-14, -1.5D-14,  8.7D-14, r^2= 5.7D+00
   Bfn.  Coefficient  Atom+Function         Bfn.  Coefficient  Atom+Function  
  ----- ------------  ---------------      ----- ------------  ---------------
    17      1.170038  1 F  pz                14     -0.671758  1 F  pz         
    15     -0.310479  1 F  px                16     -0.211347  1 F  py         
    11     -0.196269  1 F  pz                12      0.178257  1 F  px         
    48      0.150654  1 F  fxxz              53      0.150654  1 F  fyyz       
    55      0.150654  1 F  fzzz              13      0.121342  1 F  py         

 Vector   10  Occ=0.000000D+00  E= 9.305311D-01
              MO Center=  8.5D-15,  7.9D-15,  8.4D-16, r^2= 3.0D+00
   Bfn.  Coefficient  Atom+Function         Bfn.  Coefficient  Atom+Function  
  ----- ------------  ---------------      ----- ------------  ---------------
     4      2.833230  1 F  s                  5      2.329089  1 F  s          
    30     -1.718162  1 F  dxx               33     -1.718162  1 F  dyy        
    35     -1.718162  1 F  dzz               24     -0.692950  1 F  dxx        
    27     -0.692950  1 F  dyy               29     -0.692950  1 F  dzz        
     3     -0.535687  1 F  s                  2     -0.299100  1 F  s          

 Vector   11  Occ=0.000000D+00  E= 1.006113D+00
              MO Center=  7.5D-15,  5.3D-15, -4.0D-14, r^2= 1.8D+00
   Bfn.  Coefficient  Atom+Function         Bfn.  Coefficient  Atom+Function  
  ----- ------------  ---------------      ----- ------------  ---------------
    32      1.311769  1 F  dxz               34     -0.783261  1 F  dyz        
    31      0.521788  1 F  dxy               30     -0.513478  1 F  dxx        
    35      0.312325  1 F  dzz               33      0.201152  1 F  dyy        
    26     -0.148673  1 F  dxz               28      0.088773  1 F  dyz        
    25     -0.059139  1 F  dxy               24      0.058197  1 F  dxx        

 Vector   12  Occ=0.000000D+00  E= 1.006113D+00
              MO Center= -4.8D-15, -1.5D-14, -2.1D-15, r^2= 1.8D+00
   Bfn.  Coefficient  Atom+Function         Bfn.  Coefficient  Atom+Function  
  ----- ------------  ---------------      ----- ------------  ---------------
    33      0.932330  1 F  dyy               30     -0.708945  1 F  dxx        
    34      0.626661  1 F  dyz               32     -0.402824  1 F  dxz        
    35     -0.223385  1 F  dzz               31      0.106659  1 F  dxy        
    27     -0.105669  1 F  dyy               24      0.080351  1 F  dxx        
    28     -0.071025  1 F  dyz               26      0.045655  1 F  dxz        

 Vector   13  Occ=0.000000D+00  E= 1.006113D+00
              MO Center=  2.6D-14,  3.3D-14, -1.1D-14, r^2= 1.8D+00
   Bfn.  Coefficient  Atom+Function         Bfn.  Coefficient  Atom+Function  
  ----- ------------  ---------------      ----- ------------  ---------------
    31      1.289322  1 F  dxy               34      0.926631  1 F  dyz        
    32      0.543688  1 F  dxz               30      0.405824  1 F  dxx        
    35     -0.360361  1 F  dzz               25     -0.146129  1 F  dxy        
    28     -0.105023  1 F  dyz               26     -0.061621  1 F  dxz        
    19      0.047731  1 F  dxy               24     -0.045995  1 F  dxx        

 Vector   14  Occ=0.000000D+00  E= 1.006113D+00
              MO Center=  2.8D-14, -2.5D-14,  1.2D-14, r^2= 1.8D+00
   Bfn.  Coefficient  Atom+Function         Bfn.  Coefficient  Atom+Function  
  ----- ------------  ---------------      ----- ------------  ---------------
    31      0.870158  1 F  dxy               35      0.809829  1 F  dzz        
    32     -0.802143  1 F  dxz               30     -0.404528  1 F  dxx        
    33     -0.405302  1 F  dyy               34      0.204337  1 F  dyz        
    25     -0.098622  1 F  dxy               29     -0.091785  1 F  dzz        
    26      0.090913  1 F  dxz               24      0.045848  1 F  dxx        

 Vector   15  Occ=0.000000D+00  E= 1.006113D+00
              MO Center= -3.1D-15, -1.6D-14, -1.2D-15, r^2= 1.8D+00
   Bfn.  Coefficient  Atom+Function         Bfn.  Coefficient  Atom+Function  
  ----- ------------  ---------------      ----- ------------  ---------------
    34      1.226065  1 F  dyz               31     -0.840636  1 F  dxy        
    32      0.766681  1 F  dxz               35      0.451087  1 F  dzz        
    33     -0.246116  1 F  dyy               30     -0.204971  1 F  dxx        
    28     -0.138960  1 F  dyz               25      0.095276  1 F  dxy        
    26     -0.086894  1 F  dxz               29     -0.051125  1 F  dzz        

 Vector   16  Occ=0.000000D+00  E= 1.047110D+00
              MO Center=  1.5D-15, -2.7D-14,  3.2D-14, r^2= 2.6D+00
   Bfn.  Coefficient  Atom+Function         Bfn.  Coefficient  Atom+Function  
  ----- ------------  ---------------      ----- ------------  ---------------
    13      2.201142  1 F  py                14     -0.945834  1 F  pz         
    16     -0.690222  1 F  py                47     -0.667972  1 F  fxxy       
    52     -0.667972  1 F  fyyy              54     -0.667972  1 F  fyzz       
     7     -0.358326  1 F  py                17      0.296589  1 F  pz         
    48      0.287028  1 F  fxxz              53      0.287028  1 F  fyyz       

 Vector   17  Occ=0.000000D+00  E= 1.047110D+00
              MO Center= -5.3D-14,  2.5D-14, -1.2D-14, r^2= 2.6D+00
   Bfn.  Coefficient  Atom+Function         Bfn.  Coefficient  Atom+Function  
  ----- ------------  ---------------      ----- ------------  ---------------
    12      2.345347  1 F  px                15     -0.735441  1 F  px         
    46     -0.711733  1 F  fxxx              49     -0.711733  1 F  fxyy       
    51     -0.711733  1 F  fxzz              14      0.465820  1 F  pz         
     6     -0.381802  1 F  px                 9     -0.233474  1 F  px         
    36     -0.164307  1 F  fxxx              39     -0.164307  1 F  fxyy       

 Vector   18  Occ=0.000000D+00  E= 1.047110D+00
              MO Center= -1.0D-14,  9.6D-15,  2.3D-14, r^2= 2.6D+00
   Bfn.  Coefficient  Atom+Function         Bfn.  Coefficient  Atom+Function  
  ----- ------------  ---------------      ----- ------------  ---------------
    14      2.151717  1 F  pz                13      0.934138  1 F  py         
    17     -0.674723  1 F  pz                48     -0.652973  1 F  fxxz       
    53     -0.652973  1 F  fyyz              55     -0.652973  1 F  fzzz       
    12     -0.488852  1 F  px                 8     -0.350280  1 F  pz         
    16     -0.292922  1 F  py                47     -0.283479  1 F  fxxy       

 Vector   19  Occ=0.000000D+00  E= 2.720135D+00
              MO Center=  5.5D-14,  5.1D-15, -8.1D-15, r^2= 1.4D+00
   Bfn.  Coefficient  Atom+Function         Bfn.  Coefficient  Atom+Function  
  ----- ------------  ---------------      ----- ------------  ---------------
    12      1.914284  1 F  px                46     -1.513338  1 F  fxxx       
    49     -1.513338  1 F  fxyy              51     -1.513338  1 F  fxzz       
    13      1.451122  1 F  py                47     -1.147185  1 F  fxxy       
    52     -1.147185  1 F  fyyy              54     -1.147185  1 F  fyzz       
     9      0.704050  1 F  px                10      0.533705  1 F  py         

 Vector   20  Occ=0.000000D+00  E= 2.720135D+00
              MO Center= -3.0D-14,  2.9D-14,  4.4D-15, r^2= 1.4D+00
   Bfn.  Coefficient  Atom+Function         Bfn.  Coefficient  Atom+Function  
  ----- ------------  ---------------      ----- ------------  ---------------
    13      1.872653  1 F  py                47     -1.480427  1 F  fxxy       
    52     -1.480427  1 F  fyyy              54     -1.480427  1 F  fyzz       
    12     -1.433965  1 F  px                46      1.133622  1 F  fxxx       
    49      1.133622  1 F  fxyy              51      1.133622  1 F  fxzz       
    10      0.688739  1 F  py                 9     -0.527395  1 F  px         

 Vector   21  Occ=0.000000D+00  E= 2.720135D+00
              MO Center= -7.0D-17, -1.6D-14, -1.8D-14, r^2= 1.4D+00
   Bfn.  Coefficient  Atom+Function         Bfn.  Coefficient  Atom+Function  
  ----- ------------  ---------------      ----- ------------  ---------------
    14      2.357855  1 F  pz                48     -1.864004  1 F  fxxz       
    53     -1.864004  1 F  fyyz              55     -1.864004  1 F  fzzz       
    11      0.867190  1 F  pz                17     -0.442698  1 F  pz         
    13     -0.401571  1 F  py                38     -0.350787  1 F  fxxz       
    43     -0.350787  1 F  fyyz              45     -0.350787  1 F  fzzz       

 Vector   22  Occ=0.000000D+00  E= 2.844044D+00
              MO Center=  9.1D-15, -5.9D-14,  7.4D-15, r^2= 2.1D+00
   Bfn.  Coefficient  Atom+Function         Bfn.  Coefficient  Atom+Function  
  ----- ------------  ---------------      ----- ------------  ---------------
     4     11.529992  1 F  s                 30     -2.988219  1 F  dxx        
    33     -2.988219  1 F  dyy               35     -2.988219  1 F  dzz        
     2     -2.911796  1 F  s                  3     -2.418947  1 F  s          
     5      2.094902  1 F  s                 24     -2.024220  1 F  dxx        
    27     -2.024220  1 F  dyy               29     -2.024220  1 F  dzz        

 Vector   23  Occ=0.000000D+00  E= 2.846786D+00
              MO Center=  2.5D-15,  2.7D-14,  1.9D-15, r^2= 8.1D-01
   Bfn.  Coefficient  Atom+Function         Bfn.  Coefficient  Atom+Function  
  ----- ------------  ---------------      ----- ------------  ---------------
    28      1.453743  1 F  dyz               25     -0.879075  1 F  dxy        
    34     -0.814634  1 F  dyz               27     -0.780319  1 F  dyy        
    31      0.492607  1 F  dxy               24      0.451277  1 F  dxx        
    33      0.437267  1 F  dyy               29      0.329042  1 F  dzz        
    30     -0.252882  1 F  dxx               35     -0.184385  1 F  dzz        

 Vector   24  Occ=0.000000D+00  E= 2.846786D+00
              MO Center= -1.2D-14,  9.9D-15, -3.9D-15, r^2= 8.1D-01
   Bfn.  Coefficient  Atom+Function         Bfn.  Coefficient  Atom+Function  
  ----- ------------  ---------------      ----- ------------  ---------------
    28      1.501299  1 F  dyz               34     -0.841283  1 F  dyz        
    25      0.778568  1 F  dxy               26     -0.665808  1 F  dxz        
    27      0.626749  1 F  dyy               29     -0.571182  1 F  dzz        
    31     -0.436286  1 F  dxy               32      0.373099  1 F  dxz        
    33     -0.351212  1 F  dyy               35      0.320073  1 F  dzz        

 Vector   25  Occ=0.000000D+00  E= 2.846786D+00
              MO Center= -2.5D-14,  8.3D-15,  1.8D-14, r^2= 8.1D-01
   Bfn.  Coefficient  Atom+Function         Bfn.  Coefficient  Atom+Function  
  ----- ------------  ---------------      ----- ------------  ---------------
    26      1.668401  1 F  dxz               32     -0.934922  1 F  dxz        
    24     -0.635852  1 F  dxx               27      0.567500  1 F  dyy        
    28      0.520397  1 F  dyz               25     -0.480857  1 F  dxy        
    30      0.356312  1 F  dxx               33     -0.318010  1 F  dyy        
    34     -0.291615  1 F  dyz               31      0.269458  1 F  dxy        

 Vector   26  Occ=0.000000D+00  E= 2.846786D+00
              MO Center= -7.6D-15,  1.4D-15,  2.5D-15, r^2= 8.1D-01
   Bfn.  Coefficient  Atom+Function         Bfn.  Coefficient  Atom+Function  
  ----- ------------  ---------------      ----- ------------  ---------------
    29      1.065287  1 F  dzz               25      0.854364  1 F  dxy        
    24     -0.824315  1 F  dxx               35     -0.596955  1 F  dzz        
    31     -0.478760  1 F  dxy               30      0.461921  1 F  dxx        
    26     -0.407431  1 F  dxz               28      0.327011  1 F  dyz        
    27     -0.240972  1 F  dyy               32      0.228312  1 F  dxz        

 Vector   27  Occ=0.000000D+00  E= 2.846786D+00
              MO Center=  3.2D-15,  1.3D-14, -1.6D-15, r^2= 8.1D-01
   Bfn.  Coefficient  Atom+Function         Bfn.  Coefficient  Atom+Function  
  ----- ------------  ---------------      ----- ------------  ---------------
    25      1.551634  1 F  dxy               26      1.155384  1 F  dxz        
    31     -0.869489  1 F  dxy               32     -0.647442  1 F  dxz        
    24      0.540385  1 F  dxx               27     -0.448019  1 F  dyy        
    30     -0.302816  1 F  dxx               33      0.251056  1 F  dyy        
    29     -0.092366  1 F  dzz               28      0.051517  1 F  dyz        

 Vector   28  Occ=0.000000D+00  E= 2.941067D+00
              MO Center= -9.9D-16, -6.7D-15, -2.4D-15, r^2= 9.3D-01
   Bfn.  Coefficient  Atom+Function         Bfn.  Coefficient  Atom+Function  
  ----- ------------  ---------------      ----- ------------  ---------------
    47      2.290108  1 F  fxxy              51      1.275465  1 F  fxzz       
    49     -0.576360  1 F  fxyy              54     -0.576769  1 F  fyzz       
    52     -0.571113  1 F  fyyy              37     -0.310158  1 F  fxxy       
    46     -0.233035  1 F  fxxx              48      0.219537  1 F  fxxz       
    41     -0.172741  1 F  fxzz              55     -0.096760  1 F  fzzz       

 Vector   29  Occ=0.000000D+00  E= 2.941067D+00
              MO Center= -8.6D-16, -8.2D-15, -9.5D-15, r^2= 9.3D-01
   Bfn.  Coefficient  Atom+Function         Bfn.  Coefficient  Atom+Function  
  ----- ------------  ---------------      ----- ------------  ---------------
    54      1.930667  1 F  fyzz              49     -1.457755  1 F  fxyy       
    53      0.851999  1 F  fyyz              51      0.794724  1 F  fxzz       
    48     -0.612954  1 F  fxxz              47     -0.571386  1 F  fxxy       
    52     -0.453094  1 F  fyyy              50     -0.361630  1 F  fxyz       
    44     -0.261478  1 F  fyzz              46      0.221010  1 F  fxxx       

 Vector   30  Occ=0.000000D+00  E= 2.941067D+00
              MO Center= -7.1D-16,  2.2D-15,  1.3D-15, r^2= 9.3D-01
   Bfn.  Coefficient  Atom+Function         Bfn.  Coefficient  Atom+Function  
  ----- ------------  ---------------      ----- ------------  ---------------
    49      1.989593  1 F  fxyy              53      1.326762  1 F  fyyz       
    54      0.844800  1 F  fyzz              46     -0.683253  1 F  fxxx       
    50      0.481157  1 F  fxyz              55     -0.341018  1 F  fzzz       
    52     -0.336093  1 F  fyyy              48     -0.303708  1 F  fxxz       
    39     -0.269458  1 F  fxyy              43     -0.179689  1 F  fyyz       

 Vector   31  Occ=0.000000D+00  E= 2.941067D+00
              MO Center=  1.8D-15, -3.2D-15,  8.8D-15, r^2= 9.3D-01
   Bfn.  Coefficient  Atom+Function         Bfn.  Coefficient  Atom+Function  
  ----- ------------  ---------------      ----- ------------  ---------------
    53      1.868086  1 F  fyyz              54     -1.359880  1 F  fyzz       
    50     -1.028836  1 F  fxyz              52      0.600678  1 F  fyyy       
    55     -0.586287  1 F  fzzz              49     -0.535893  1 F  fxyy       
    51      0.531541  1 F  fxzz              47     -0.442152  1 F  fxxy       
    43     -0.253002  1 F  fyyz              44      0.184174  1 F  fyzz       

 Vector   32  Occ=0.000000D+00  E= 2.941067D+00
              MO Center=  3.2D-15,  2.8D-15,  5.9D-15, r^2= 9.3D-01
   Bfn.  Coefficient  Atom+Function         Bfn.  Coefficient  Atom+Function  
  ----- ------------  ---------------      ----- ------------  ---------------
    51      1.661220  1 F  fxzz              48      1.644103  1 F  fxxz       
    47     -1.015734  1 F  fxxy              53     -0.750487  1 F  fyyz       
    50      0.729095  1 F  fxyz              46     -0.551170  1 F  fxxx       
    55     -0.297872  1 F  fzzz              54      0.260783  1 F  fyzz       
    52      0.251650  1 F  fyyy              41     -0.224986  1 F  fxzz       

 Vector   33  Occ=0.000000D+00  E= 2.941067D+00
              MO Center=  8.1D-16,  1.9D-15, -4.3D-15, r^2= 9.3D-01
   Bfn.  Coefficient  Atom+Function         Bfn.  Coefficient  Atom+Function  
  ----- ------------  ---------------      ----- ------------  ---------------
    48      1.785649  1 F  fxxz              51     -1.292049  1 F  fxzz       
    50      0.873423  1 F  fxyz              55     -0.769005  1 F  fzzz       
    46      0.534710  1 F  fxxx              53      0.521365  1 F  fyyz       
    47      0.414560  1 F  fxxy              54      0.373702  1 F  fyzz       
    49     -0.312080  1 F  fxyy              52     -0.262754  1 F  fyyy       

 Vector   34  Occ=0.000000D+00  E= 2.941067D+00
              MO Center=  3.9D-15, -3.9D-15, -3.1D-16, r^2= 9.3D-01
   Bfn.  Coefficient  Atom+Function         Bfn.  Coefficient  Atom+Function  
  ----- ------------  ---------------      ----- ------------  ---------------
    50      3.847429  1 F  fxyz              48     -0.766520  1 F  fxxz       
    40     -0.521073  1 F  fxyz              49     -0.454858  1 F  fxyy       
    53      0.437319  1 F  fyyz              54     -0.420106  1 F  fyzz       
    51      0.183457  1 F  fxzz              52      0.173986  1 F  fyyy       
    55      0.109734  1 F  fzzz              38      0.103813  1 F  fxxz       

 Vector   35  Occ=0.000000D+00  E= 5.002092D+00
              MO Center=  2.0D-14, -5.9D-15,  7.8D-15, r^2= 2.2D+00
   Bfn.  Coefficient  Atom+Function         Bfn.  Coefficient  Atom+Function  
  ----- ------------  ---------------      ----- ------------  ---------------
     4     23.561182  1 F  s                 24     -6.625549  1 F  dxx        
    27     -6.625549  1 F  dyy               29     -6.625549  1 F  dzz        
     3     -4.700765  1 F  s                 30     -4.402251  1 F  dxx        
    33     -4.402251  1 F  dyy               35     -4.402251  1 F  dzz        
     5      2.132309  1 F  s                  2     -0.871858  1 F  s          

 Vector   36  Occ=0.000000D+00  E= 7.043064D+00
              MO Center= -8.4D-15, -5.9D-15, -6.0D-15, r^2= 6.4D-01
   Bfn.  Coefficient  Atom+Function         Bfn.  Coefficient  Atom+Function  
  ----- ------------  ---------------      ----- ------------  ---------------
     9      2.196774  1 F  px                10      1.580033  1 F  py         
    11      1.469888  1 F  pz                46     -1.406559  1 F  fxxx       
    49     -1.406559  1 F  fxyy              51     -1.406559  1 F  fxzz       
    12      1.169320  1 F  px                 6     -1.140529  1 F  px         
    47     -1.011669  1 F  fxxy              52     -1.011669  1 F  fyyy       

 Vector   37  Occ=0.000000D+00  E= 7.043064D+00
              MO Center= -3.3D-15, -7.5D-16,  4.6D-15, r^2= 6.4D-01
   Bfn.  Coefficient  Atom+Function         Bfn.  Coefficient  Atom+Function  
  ----- ------------  ---------------      ----- ------------  ---------------
    11      2.398125  1 F  pz                 9     -1.890482  1 F  px         
    48     -1.535480  1 F  fxxz              53     -1.535480  1 F  fyyz       
    55     -1.535480  1 F  fzzz              14      1.276497  1 F  pz         
     8     -1.245067  1 F  pz                46      1.210444  1 F  fxxx       
    49      1.210444  1 F  fxyy              51      1.210444  1 F  fxzz       

 Vector   38  Occ=0.000000D+00  E= 7.043064D+00
              MO Center= -6.2D-15,  1.8D-14, -8.9D-15, r^2= 6.4D-01
   Bfn.  Coefficient  Atom+Function         Bfn.  Coefficient  Atom+Function  
  ----- ------------  ---------------      ----- ------------  ---------------
    10      2.613125  1 F  py                47     -1.673141  1 F  fxxy       
    52     -1.673141  1 F  fyyy              54     -1.673141  1 F  fyzz       
    13      1.390939  1 F  py                 7     -1.356691  1 F  py         
    11     -1.253522  1 F  pz                 9     -1.040746  1 F  px         
    48      0.802610  1 F  fxxz              53      0.802610  1 F  fyyz       

 Vector   39  Occ=0.000000D+00  E= 8.554677D+00
              MO Center=  2.1D-15,  4.6D-15,  9.7D-16, r^2= 4.0D-01
   Bfn.  Coefficient  Atom+Function         Bfn.  Coefficient  Atom+Function  
  ----- ------------  ---------------      ----- ------------  ---------------
    37      2.040802  1 F  fxxy              44      1.529137  1 F  fyzz       
    42     -1.189980  1 F  fyyy              47     -1.028137  1 F  fxxy       
    54     -0.770365  1 F  fyzz              41      0.684787  1 F  fxzz       
    52      0.599501  1 F  fyyy              51     -0.344989  1 F  fxzz       
    43     -0.334362  1 F  fyyz              36     -0.230331  1 F  fxxx       

 Vector   40  Occ=0.000000D+00  E= 8.554677D+00
              MO Center=  5.1D-15, -1.7D-15,  1.6D-15, r^2= 4.0D-01
   Bfn.  Coefficient  Atom+Function         Bfn.  Coefficient  Atom+Function  
  ----- ------------  ---------------      ----- ------------  ---------------
    44      2.164584  1 F  fyzz              37     -1.812599  1 F  fxxy       
    39      1.103878  1 F  fxyy              54     -1.090498  1 F  fyzz       
    38     -1.039508  1 F  fxxz              47      0.913171  1 F  fxxy       
    40      0.608922  1 F  fxyz              49     -0.556124  1 F  fxyy       
    48      0.523695  1 F  fxxz              41     -0.514769  1 F  fxzz       

 Vector   41  Occ=0.000000D+00  E= 8.554677D+00
              MO Center= -1.5D-16,  1.8D-15, -1.4D-15, r^2= 4.0D-01
   Bfn.  Coefficient  Atom+Function         Bfn.  Coefficient  Atom+Function  
  ----- ------------  ---------------      ----- ------------  ---------------
    41      2.541389  1 F  fxzz              51     -1.280329  1 F  fxzz       
    37     -1.044625  1 F  fxxy              40     -0.933375  1 F  fxyz       
    38      0.921108  1 F  fxxz              43     -0.881324  1 F  fyyz       
    36     -0.676207  1 F  fxxx              47      0.526273  1 F  fxxy       
    39     -0.512768  1 F  fxyy              50      0.470226  1 F  fxyz       

 Vector   42  Occ=0.000000D+00  E= 8.554677D+00
              MO Center= -2.2D-15, -1.6D-15, -4.9D-16, r^2= 4.0D-01
   Bfn.  Coefficient  Atom+Function         Bfn.  Coefficient  Atom+Function  
  ----- ------------  ---------------      ----- ------------  ---------------
    39      2.524135  1 F  fxyy              40      1.282408  1 F  fxyz       
    49     -1.271636  1 F  fxyy              36     -0.896718  1 F  fxxx       
    38      0.704977  1 F  fxxz              44     -0.675682  1 F  fyzz       
    50     -0.646065  1 F  fxyz              43      0.509524  1 F  fyyz       
    46      0.451758  1 F  fxxx              45     -0.404834  1 F  fzzz       

 Vector   43  Occ=0.000000D+00  E= 8.554677D+00
              MO Center= -1.4D-16, -8.7D-16, -2.1D-16, r^2= 4.0D-01
   Bfn.  Coefficient  Atom+Function         Bfn.  Coefficient  Atom+Function  
  ----- ------------  ---------------      ----- ------------  ---------------
    43      2.433334  1 F  fyyz              40      1.526482  1 F  fxyz       
    38     -1.304261  1 F  fxxz              41      1.222087  1 F  fxzz       
    53     -1.225891  1 F  fyyz              39     -0.828372  1 F  fxyy       
    50     -0.769028  1 F  fxyz              48      0.657075  1 F  fxxz       
    51     -0.615676  1 F  fxzz              49      0.417326  1 F  fxyy       

 Vector   44  Occ=0.000000D+00  E= 8.554677D+00
              MO Center= -3.5D-15, -1.6D-15,  3.1D-15, r^2= 4.0D-01
   Bfn.  Coefficient  Atom+Function         Bfn.  Coefficient  Atom+Function  
  ----- ------------  ---------------      ----- ------------  ---------------
    38      2.138545  1 F  fxxz              44      1.258583  1 F  fyzz       
    48     -1.077380  1 F  fxxz              45     -1.005535  1 F  fzzz       
    43      0.878061  1 F  fyyz              41     -0.703788  1 F  fxzz       
    37     -0.690252  1 F  fxxy              54     -0.634062  1 F  fyzz       
    55      0.506580  1 F  fzzz              53     -0.442359  1 F  fyyz       

 Vector   45  Occ=0.000000D+00  E= 8.554677D+00
              MO Center=  1.6D-15, -3.6D-15, -6.2D-16, r^2= 4.0D-01
   Bfn.  Coefficient  Atom+Function         Bfn.  Coefficient  Atom+Function  
  ----- ------------  ---------------      ----- ------------  ---------------
    40      4.216606  1 F  fxyz              50     -2.124288  1 F  fxyz       
    43     -1.142295  1 F  fyyz              39     -0.757094  1 F  fxyy       
    38      0.717716  1 F  fxxz              53      0.575478  1 F  fyyz       
    49      0.381417  1 F  fxyy              48     -0.361579  1 F  fxxz       
    36      0.219977  1 F  fxxx              45      0.141526  1 F  fzzz       

 Vector   46  Occ=0.000000D+00  E= 8.939927D+00
              MO Center= -1.2D-15, -1.6D-15, -2.2D-16, r^2= 3.0D-01
   Bfn.  Coefficient  Atom+Function         Bfn.  Coefficient  Atom+Function  
  ----- ------------  ---------------      ----- ------------  ---------------
    20      1.111136  1 F  dxz               18     -0.912058  1 F  dxx        
    26     -0.771634  1 F  dxz               21      0.703466  1 F  dyy        
    24      0.633383  1 F  dxx               19     -0.590535  1 F  dxy        
    27     -0.488526  1 F  dyy               25      0.410100  1 F  dxy        
    32      0.298793  1 F  dxz               30     -0.245259  1 F  dxx        

 Vector   47  Occ=0.000000D+00  E= 8.939927D+00
              MO Center= -6.8D-15,  4.1D-15, -2.6D-16, r^2= 3.0D-01
   Bfn.  Coefficient  Atom+Function         Bfn.  Coefficient  Atom+Function  
  ----- ------------  ---------------      ----- ------------  ---------------
    19      1.534481  1 F  dxy               25     -1.065628  1 F  dxy        
    23      0.764981  1 F  dzz               18     -0.585448  1 F  dxx        
    29     -0.531245  1 F  dzz               31      0.412634  1 F  dxy        
    24      0.406567  1 F  dxx               35      0.205709  1 F  dzz        
    20     -0.199447  1 F  dxz               21     -0.179533  1 F  dyy        

 Vector   48  Occ=0.000000D+00  E= 8.939927D+00
              MO Center=  3.2D-15,  3.3D-17, -1.7D-15, r^2= 3.0D-01
   Bfn.  Coefficient  Atom+Function         Bfn.  Coefficient  Atom+Function  
  ----- ------------  ---------------      ----- ------------  ---------------
    21      0.928200  1 F  dyy               19      0.825194  1 F  dxy        
    23     -0.783031  1 F  dzz               20     -0.702611  1 F  dxz        
    27     -0.644593  1 F  dyy               25     -0.573060  1 F  dxy        
    29      0.543780  1 F  dzz               26      0.487932  1 F  dxz        
    22      0.401520  1 F  dyz               28     -0.278838  1 F  dyz        

 Vector   49  Occ=0.000000D+00  E= 8.939927D+00
              MO Center= -2.9D-15,  1.6D-15,  1.3D-15, r^2= 3.0D-01
   Bfn.  Coefficient  Atom+Function         Bfn.  Coefficient  Atom+Function  
  ----- ------------  ---------------      ----- ------------  ---------------
    22      2.035925  1 F  dyz               28     -1.413859  1 F  dyz        
    34      0.547476  1 F  dyz               21     -0.216457  1 F  dyy        
    23      0.176186  1 F  dzz               20      0.150329  1 F  dxz        
    27      0.150320  1 F  dyy               29     -0.122353  1 F  dzz        
    26     -0.104397  1 F  dxz               33     -0.058207  1 F  dyy        

 Vector   50  Occ=0.000000D+00  E= 8.939927D+00
              MO Center= -6.2D-16,  2.7D-15,  1.7D-15, r^2= 3.0D-01
   Bfn.  Coefficient  Atom+Function         Bfn.  Coefficient  Atom+Function  
  ----- ------------  ---------------      ----- ------------  ---------------
    20      1.592701  1 F  dxz               26     -1.106059  1 F  dxz        
    19      0.970730  1 F  dxy               25     -0.674128  1 F  dxy        
    18      0.495136  1 F  dxx               32      0.428290  1 F  dxz        
    23     -0.411786  1 F  dzz               24     -0.343849  1 F  dxx        
    29      0.285967  1 F  dzz               31      0.261037  1 F  dxy        

 Vector   51  Occ=0.000000D+00  E= 1.412828D+01
              MO Center=  1.3D-14, -1.5D-14,  2.7D-15, r^2= 6.1D-01
   Bfn.  Coefficient  Atom+Function         Bfn.  Coefficient  Atom+Function  
  ----- ------------  ---------------      ----- ------------  ---------------
     2     10.526982  1 F  s                  4      9.882002  1 F  s          
     1      5.669610  1 F  s                  3     -5.371387  1 F  s          
    24     -5.218954  1 F  dxx               27     -5.218954  1 F  dyy        
    29     -5.218954  1 F  dzz               18     -2.017844  1 F  dxx        
    21     -2.017844  1 F  dyy               23     -2.017844  1 F  dzz        

 Vector   52  Occ=0.000000D+00  E= 1.732869D+01
              MO Center= -1.3D-14, -2.6D-16,  7.0D-15, r^2= 1.1D+00
   Bfn.  Coefficient  Atom+Function         Bfn.  Coefficient  Atom+Function  
  ----- ------------  ---------------      ----- ------------  ---------------
     9     15.169918  1 F  px                11     -8.543897  1 F  pz         
    36     -6.971928  1 F  fxxx              39     -6.971928  1 F  fxyy       
    41     -6.971928  1 F  fxzz              46     -4.113806  1 F  fxxx       
    49     -4.113806  1 F  fxyy              51     -4.113806  1 F  fxzz       
    38      3.926681  1 F  fxxz              43      3.926681  1 F  fyyz       

 Vector   53  Occ=0.000000D+00  E= 1.732869D+01
              MO Center= -4.9D-15, -2.5D-15, -7.6D-15, r^2= 1.1D+00
   Bfn.  Coefficient  Atom+Function         Bfn.  Coefficient  Atom+Function  
  ----- ------------  ---------------      ----- ------------  ---------------
    11     13.876439  1 F  pz                 9      8.836892  1 F  px         
    38     -6.377459  1 F  fxxz              43     -6.377459  1 F  fyyz       
    45     -6.377459  1 F  fzzz              10      6.219770  1 F  py         
    36     -4.061339  1 F  fxxx              39     -4.061339  1 F  fxyy       
    41     -4.061339  1 F  fxzz              48     -3.763038  1 F  fxxz       

 Vector   54  Occ=0.000000D+00  E= 1.732869D+01
              MO Center= -1.6D-15,  3.6D-14, -1.4D-14, r^2= 1.1D+00
   Bfn.  Coefficient  Atom+Function         Bfn.  Coefficient  Atom+Function  
  ----- ------------  ---------------      ----- ------------  ---------------
    10     16.261582  1 F  py                37     -7.473644  1 F  fxxy       
    42     -7.473644  1 F  fyyy              44     -7.473644  1 F  fyzz       
    11     -6.616498  1 F  pz                47     -4.409846  1 F  fxxy       
    52     -4.409846  1 F  fyyy              54     -4.409846  1 F  fyzz       
    38      3.040870  1 F  fxxz              43      3.040870  1 F  fyyz       

 Vector   55  Occ=0.000000D+00  E= 2.271324D+01
              MO Center= -5.6D-15,  2.4D-15, -9.0D-16, r^2= 2.8D-01
   Bfn.  Coefficient  Atom+Function         Bfn.  Coefficient  Atom+Function  
  ----- ------------  ---------------      ----- ------------  ---------------
     4      8.919449  1 F  s                  2      7.826040  1 F  s          
    24     -4.049668  1 F  dxx               27     -4.049668  1 F  dyy        
    29     -4.049668  1 F  dzz               18     -3.383825  1 F  dxx        
    21     -3.383825  1 F  dyy               23     -3.383825  1 F  dzz        
     1      2.558403  1 F  s                 30     -1.437086  1 F  dxx        


            General Information
            -------------------
          SCF calculation type: DFT
          Wavefunction type:  closed shell.
          No. of atoms     :     1
          No. of electrons :    10
           Alpha electrons :     5
            Beta electrons :     5
          Charge           :    -1
          Spin multiplicity:     1
          Use of symmetry is: off; symmetry adaption is: off
          Maximum number of iterations: 200
          AO basis - number of functions:    55
                     number of shells:    14
          Convergence on energy requested:  1.00D-06
          Convergence on density requested:  1.00D-05
          Convergence on gradient requested:  5.00D-04

              XC Information
              --------------
          PerdewBurkeErnzerhof Exchange Functional  1.000          
            Perdew 1991 LDA Correlation Functional  1.000 local    
           PerdewBurkeErnz. Correlation Functional  1.000 non-local

             Grid Information
             ----------------
          Grid used for XC integration:  medium    
          Radial quadrature: Mura-Knowles        
          Angular quadrature: Lebedev. 
          Tag              B.-S. Rad. Rad. Pts. Rad. Cut. Ang. Pts.
          ---              ---------- --------- --------- ---------
          F                   0.50       49           6.0       434
          Grid pruning is: on 
          Number of quadrature shells:    49
          Spatial weights used:  Erf1

          Convergence Information
          -----------------------
          Convergence aids based upon iterative change in 
          total energy or number of iterations. 
          Levelshifting, if invoked, occurs when the 
          HOMO/LUMO gap drops below (HL_TOL):  1.00D-02
          DIIS, if invoked, will attempt to extrapolate 
          using up to (NFOCK): 10 stored Fock matrices.

                    Damping(40%)  Levelshifting(0.0)       DIIS
                  --------------- ------------------- ---------------
          dE  on:    start            ASAP                start   
          dE off:  200 iters        200 iters           200 iters 


      Screening Tolerance Information
      -------------------------------
          Density screening/tol_rho:  1.00D-10
          AO Gaussian exp screening on grid/accAOfunc:  14
          CD Gaussian exp screening on grid/accCDfunc:  20
          XC Gaussian exp screening on grid/accXCfunc:  20
          Schwarz screening/accCoul:  1.00D-08



                            NWChem DFT Gradient Module
                            --------------------------



  charge          =  -1.00
  wavefunction    = closed shell



                         DFT ENERGY GRADIENTS

    atom               coordinates                        gradient
                 x          y          z           x          y          z
   1 F       0.000000   0.000000   0.000000    0.000000   0.000000  -0.000000

                 ----------------------------------------
                 |  Time  |  1-e(secs)   |  2-e(secs)   |
                 ----------------------------------------
                 |  CPU   |       0.00   |       0.00   |
                 ----------------------------------------
                 |  WALL  |       0.00   |       0.00   |
                 ----------------------------------------

@ Step       Energy      Delta E   Gmax     Grms     Xrms     Xmax   Walltime
@ ---- ---------------- -------- -------- -------- -------- -------- --------
@    0     -99.80103737  0.0D+00  0.00000  0.00000  0.00000  0.00000      5.3
                                     ok       ok       ok       ok  

  Warning ... line search gradient +ve    1.0000000000000000        0.0000000000000000     

                                 NWChem DFT Module
                                 -----------------




 Summary of "ao basis" -> "ao basis" (cartesian)
 ------------------------------------------------------------------------------
       Tag                 Description            Shells   Functions and Types
 ---------------- ------------------------------  ------  ---------------------
 F                        aug-cc-pVTZ               14       55   5s4p3d2f


  Caching 1-el integrals 

            General Information
            -------------------
          SCF calculation type: DFT
          Wavefunction type:  closed shell.
          No. of atoms     :     1
          No. of electrons :    10
           Alpha electrons :     5
            Beta electrons :     5
          Charge           :    -1
          Spin multiplicity:     1
          Use of symmetry is: off; symmetry adaption is: off
          Maximum number of iterations: 200
          AO basis - number of functions:    55
                     number of shells:    14
          Convergence on energy requested:  1.00D-06
          Convergence on density requested:  1.00D-05
          Convergence on gradient requested:  5.00D-04

              XC Information
              --------------
          PerdewBurkeErnzerhof Exchange Functional  1.000          
            Perdew 1991 LDA Correlation Functional  1.000 local    
           PerdewBurkeErnz. Correlation Functional  1.000 non-local

             Grid Information
             ----------------
          Grid used for XC integration:  medium    
          Radial quadrature: Mura-Knowles        
          Angular quadrature: Lebedev. 
          Tag              B.-S. Rad. Rad. Pts. Rad. Cut. Ang. Pts.
          ---              ---------- --------- --------- ---------
          F                   0.50       49           6.0       434
          Grid pruning is: on 
          Number of quadrature shells:    49
          Spatial weights used:  Erf1

          Convergence Information
          -----------------------
          Convergence aids based upon iterative change in 
          total energy or number of iterations. 
          Levelshifting, if invoked, occurs when the 
          HOMO/LUMO gap drops below (HL_TOL):  1.00D-02
          DIIS, if invoked, will attempt to extrapolate 
          using up to (NFOCK): 10 stored Fock matrices.

                    Damping(40%)  Levelshifting(0.0)       DIIS
                  --------------- ------------------- ---------------
          dE  on:    start            ASAP                start   
          dE off:  200 iters        200 iters           200 iters 


      Screening Tolerance Information
      -------------------------------
          Density screening/tol_rho:  1.00D-10
          AO Gaussian exp screening on grid/accAOfunc:  14
          CD Gaussian exp screening on grid/accCDfunc:  20
          XC Gaussian exp screening on grid/accXCfunc:  20
          Schwarz screening/accCoul:  1.00D-08


 Forcing the number of linearly dependent vectors to be  0

 Loading old vectors from job with title :



   Time after variat. SCF:      5.4
   Time prior to 1st pass:      5.4

 Grid_pts file          = /jet/home/hmt47/nwchem_scratch//dft.gridpts.00
 Record size in doubles =  12289        No. of grid_pts per rec  =   3070
 Max. records in memory =      2        Max. recs in file   =  67550051


           Memory utilization after 1st SCF pass: 
           Heap Space remaining (MW):       33.53            33527888
          Stack Space remaining (MW):       67.11            67108468

   convergence    iter        energy       DeltaE   RMS-Dens  Diis-err    time
 ---------------- ----- ----------------- --------- --------- ---------  ------
 d=40,ls=0.0,diis     1    -99.8010377451 -9.98D+01  2.47D-11  1.30D-18     5.4
  Singularity in Pulay matrix. Error and Fock matrices removed. 
 d=40,ls=0.0,diis     2    -99.8010377451  7.53D-13  3.46D-11  2.39D-18     5.4


         Total DFT energy =      -99.801037745105
      One electron energy =     -143.543830233846
           Coulomb energy =       54.281111831638
    Exchange-Corr. energy =      -10.538319342897
 Nuclear repulsion energy =        0.000000000000

 Numeric. integr. density =        9.999999745900

     Total iterative time =      0.0s



                       DFT Final Molecular Orbital Analysis
                       ------------------------------------

 Vector    1  Occ=2.000000D+00  E=-2.382904D+01
              MO Center= -2.1D-18, -1.1D-18, -1.4D-18, r^2= 1.2D-02
   Bfn.  Coefficient  Atom+Function         Bfn.  Coefficient  Atom+Function  
  ----- ------------  ---------------      ----- ------------  ---------------
     1      0.971558  1 F  s                  3      0.057589  1 F  s          

 Vector    2  Occ=2.000000D+00  E=-6.131234D-01
              MO Center= -1.4D-15,  1.2D-15, -2.3D-16, r^2= 3.7D-01
   Bfn.  Coefficient  Atom+Function         Bfn.  Coefficient  Atom+Function  
  ----- ------------  ---------------      ----- ------------  ---------------
     2      0.537607  1 F  s                  4      0.414388  1 F  s          
     3      0.164564  1 F  s                  5      0.047207  1 F  s          

 Vector    3  Occ=2.000000D+00  E= 5.697034D-02
              MO Center=  6.4D-16, -5.7D-16, -1.6D-16, r^2= 7.2D-01
   Bfn.  Coefficient  Atom+Function         Bfn.  Coefficient  Atom+Function  
  ----- ------------  ---------------      ----- ------------  ---------------
     6      0.349917  1 F  px                 9      0.334827  1 F  px         
    12      0.277227  1 F  px                15      0.174289  1 F  px         
     8     -0.145519  1 F  pz                11     -0.139244  1 F  pz         
    14     -0.115290  1 F  pz                17     -0.072481  1 F  pz         
     7     -0.065491  1 F  py                10     -0.062667  1 F  py         

 Vector    4  Occ=2.000000D+00  E= 5.697034D-02
              MO Center=  2.2D-16,  7.8D-16,  6.7D-16, r^2= 7.2D-01
   Bfn.  Coefficient  Atom+Function         Bfn.  Coefficient  Atom+Function  
  ----- ------------  ---------------      ----- ------------  ---------------
     8      0.265014  1 F  pz                11      0.253585  1 F  pz         
     7      0.232475  1 F  py                10      0.222449  1 F  py         
    14      0.209961  1 F  pz                13      0.184181  1 F  py         
     6      0.153721  1 F  px                 9      0.147092  1 F  px         
    17      0.132000  1 F  pz                12      0.121788  1 F  px         

 Vector    5  Occ=2.000000D+00  E= 5.697034D-02
              MO Center= -2.6D-16, -8.7D-16,  5.2D-16, r^2= 7.2D-01
   Bfn.  Coefficient  Atom+Function         Bfn.  Coefficient  Atom+Function  
  ----- ------------  ---------------      ----- ------------  ---------------
     7      0.299288  1 F  py                10      0.286382  1 F  py         
     8     -0.237695  1 F  pz                13      0.237115  1 F  py         
    11     -0.227444  1 F  pz                14     -0.188317  1 F  pz         
    16      0.149071  1 F  py                17     -0.118393  1 F  pz         
     6     -0.042834  1 F  px                 9     -0.040987  1 F  px         

 Vector    6  Occ=0.000000D+00  E= 2.999136D-01
              MO Center= -1.9D-14, -1.2D-15, -1.4D-14, r^2= 4.4D+00
   Bfn.  Coefficient  Atom+Function         Bfn.  Coefficient  Atom+Function  
  ----- ------------  ---------------      ----- ------------  ---------------
     5      2.204233  1 F  s                 30     -0.564415  1 F  dxx        
    33     -0.564415  1 F  dyy               35     -0.564415  1 F  dzz        
     2     -0.366672  1 F  s                  4      0.333396  1 F  s          
     3     -0.272954  1 F  s                 24     -0.235662  1 F  dxx        
    27     -0.235662  1 F  dyy               29     -0.235662  1 F  dzz        

 Vector    7  Occ=0.000000D+00  E= 3.298200D-01
              MO Center= -3.7D-16,  9.3D-16,  1.3D-15, r^2= 5.7D+00
   Bfn.  Coefficient  Atom+Function         Bfn.  Coefficient  Atom+Function  
  ----- ------------  ---------------      ----- ------------  ---------------
    16      1.014273  1 F  py                17      0.661853  1 F  pz         
    13     -0.582329  1 F  py                14     -0.379993  1 F  pz         
    15     -0.207975  1 F  px                10     -0.170140  1 F  py         
    47      0.130598  1 F  fxxy              52      0.130598  1 F  fyyy       
    54      0.130598  1 F  fyzz              12      0.119405  1 F  px         

 Vector    8  Occ=0.000000D+00  E= 3.298200D-01
              MO Center= -1.3D-15, -3.6D-15,  5.6D-15, r^2= 5.7D+00
   Bfn.  Coefficient  Atom+Function         Bfn.  Coefficient  Atom+Function  
  ----- ------------  ---------------      ----- ------------  ---------------
    17      0.996250  1 F  pz                16     -0.691077  1 F  py         
    14     -0.571981  1 F  pz                13      0.396771  1 F  py         
    15     -0.199878  1 F  px                11     -0.167117  1 F  pz         
    48      0.128277  1 F  fxxz              53      0.128277  1 F  fyyz       
    55      0.128277  1 F  fzzz              10      0.115925  1 F  py         

 Vector    9  Occ=0.000000D+00  E= 3.298200D-01
              MO Center=  2.0D-14,  8.5D-16,  4.9D-15, r^2= 5.7D+00
   Bfn.  Coefficient  Atom+Function         Bfn.  Coefficient  Atom+Function  
  ----- ------------  ---------------      ----- ------------  ---------------
    15      1.194508  1 F  px                12     -0.685807  1 F  px         
    17      0.281938  1 F  pz                 9     -0.200374  1 F  px         
    14     -0.161870  1 F  pz                46      0.153805  1 F  fxxx       
    49      0.153805  1 F  fxyy              51      0.153805  1 F  fxzz       
     6     -0.119774  1 F  px                16      0.060956  1 F  py         

 Vector   10  Occ=0.000000D+00  E= 9.305311D-01
              MO Center=  1.6D-16, -6.7D-15,  2.1D-16, r^2= 3.0D+00
   Bfn.  Coefficient  Atom+Function         Bfn.  Coefficient  Atom+Function  
  ----- ------------  ---------------      ----- ------------  ---------------
     4      2.833230  1 F  s                  5      2.329089  1 F  s          
    30     -1.718162  1 F  dxx               33     -1.718162  1 F  dyy        
    35     -1.718162  1 F  dzz               24     -0.692950  1 F  dxx        
    27     -0.692950  1 F  dyy               29     -0.692950  1 F  dzz        
     3     -0.535687  1 F  s                  2     -0.299100  1 F  s          

 Vector   11  Occ=0.000000D+00  E= 1.006113D+00
              MO Center=  2.8D-15,  6.1D-15, -1.2D-14, r^2= 1.8D+00
   Bfn.  Coefficient  Atom+Function         Bfn.  Coefficient  Atom+Function  
  ----- ------------  ---------------      ----- ------------  ---------------
    34      1.273041  1 F  dyz               32     -0.829614  1 F  dxz        
    30      0.605143  1 F  dxx               33     -0.308887  1 F  dyy        
    35     -0.296257  1 F  dzz               28     -0.144284  1 F  dyz        
    26      0.094027  1 F  dxz               24     -0.068586  1 F  dxx        
    22      0.047128  1 F  dyz               31     -0.046757  1 F  dxy        

 Vector   12  Occ=0.000000D+00  E= 1.006113D+00
              MO Center= -5.8D-15,  2.7D-14,  1.2D-14, r^2= 1.8D+00
   Bfn.  Coefficient  Atom+Function         Bfn.  Coefficient  Atom+Function  
  ----- ------------  ---------------      ----- ------------  ---------------
    31      1.454421  1 F  dxy               32      0.669686  1 F  dxz        
    34      0.571632  1 F  dyz               33      0.383619  1 F  dyy        
    35     -0.331237  1 F  dzz               25     -0.164841  1 F  dxy        
    26     -0.075901  1 F  dxz               28     -0.064788  1 F  dyz        
    19      0.053843  1 F  dxy               30     -0.052382  1 F  dxx        

 Vector   13  Occ=0.000000D+00  E= 1.006113D+00
              MO Center=  1.7D-14, -3.9D-15,  8.1D-15, r^2= 1.8D+00
   Bfn.  Coefficient  Atom+Function         Bfn.  Coefficient  Atom+Function  
  ----- ------------  ---------------      ----- ------------  ---------------
    32      1.351611  1 F  dxz               31     -0.708154  1 F  dxy        
    30      0.578606  1 F  dxx               35     -0.427229  1 F  dzz        
    26     -0.153189  1 F  dxz               33     -0.151377  1 F  dyy        
    25      0.080261  1 F  dxy               24     -0.065578  1 F  dxx        
    20      0.050037  1 F  dxz               29      0.048421  1 F  dzz        

 Vector   14  Occ=0.000000D+00  E= 1.006113D+00
              MO Center= -9.6D-15,  1.4D-14, -2.0D-14, r^2= 1.8D+00
   Bfn.  Coefficient  Atom+Function         Bfn.  Coefficient  Atom+Function  
  ----- ------------  ---------------      ----- ------------  ---------------
    33      0.857838  1 F  dyy               35     -0.820370  1 F  dzz        
    32     -0.532565  1 F  dxz               31     -0.468059  1 F  dxy        
    34     -0.294172  1 F  dyz               27     -0.097226  1 F  dyy        
    29      0.092979  1 F  dzz               26      0.060360  1 F  dxz        
    25      0.053049  1 F  dxy               30     -0.037468  1 F  dxx        

 Vector   15  Occ=0.000000D+00  E= 1.006113D+00
              MO Center= -1.5D-14, -3.5D-14, -1.5D-14, r^2= 1.8D+00
   Bfn.  Coefficient  Atom+Function         Bfn.  Coefficient  Atom+Function  
  ----- ------------  ---------------      ----- ------------  ---------------
    34      1.172540  1 F  dyz               31     -0.756138  1 F  dxy        
    30     -0.656872  1 F  dxx               32      0.403258  1 F  dxz        
    33      0.367745  1 F  dyy               35      0.289127  1 F  dzz        
    28     -0.132894  1 F  dyz               25      0.085699  1 F  dxy        
    24      0.074449  1 F  dxx               26     -0.045705  1 F  dxz        

 Vector   16  Occ=0.000000D+00  E= 1.047110D+00
              MO Center=  1.4D-14,  2.4D-14,  2.2D-14, r^2= 2.6D+00
   Bfn.  Coefficient  Atom+Function         Bfn.  Coefficient  Atom+Function  
  ----- ------------  ---------------      ----- ------------  ---------------
    13      1.729091  1 F  py                14      1.224439  1 F  pz         
    12     -1.119136  1 F  px                16     -0.542199  1 F  py         
    47     -0.524720  1 F  fxxy              52     -0.524720  1 F  fyyy       
    54     -0.524720  1 F  fyzz              17     -0.383953  1 F  pz         
    48     -0.371576  1 F  fxxz              53     -0.371576  1 F  fyyz       

 Vector   17  Occ=0.000000D+00  E= 1.047110D+00
              MO Center= -1.6D-14, -4.0D-15,  3.0D-14, r^2= 2.6D+00
   Bfn.  Coefficient  Atom+Function         Bfn.  Coefficient  Atom+Function  
  ----- ------------  ---------------      ----- ------------  ---------------
    14      1.931883  1 F  pz                12      1.321530  1 F  px         
    17     -0.605789  1 F  pz                48     -0.586261  1 F  fxxz       
    53     -0.586261  1 F  fyyz              55     -0.586261  1 F  fzzz       
    13     -0.512698  1 F  py                15     -0.414398  1 F  px         
    46     -0.401040  1 F  fxxx              49     -0.401040  1 F  fxyy       

 Vector   18  Occ=0.000000D+00  E= 1.047110D+00
              MO Center=  1.6D-14, -2.1D-14, -2.4D-14, r^2= 2.6D+00
   Bfn.  Coefficient  Atom+Function         Bfn.  Coefficient  Atom+Function  
  ----- ------------  ---------------      ----- ------------  ---------------
    12      1.656069  1 F  px                13      1.577612  1 F  py         
    14     -0.714178  1 F  pz                15     -0.519301  1 F  px         
    46     -0.502561  1 F  fxxx              49     -0.502561  1 F  fxyy       
    51     -0.502561  1 F  fxzz              16     -0.494699  1 F  py         
    47     -0.478751  1 F  fxxy              52     -0.478751  1 F  fyyy       

 Vector   19  Occ=0.000000D+00  E= 2.720135D+00
              MO Center=  5.3D-15,  5.8D-15,  2.7D-15, r^2= 1.4D+00
   Bfn.  Coefficient  Atom+Function         Bfn.  Coefficient  Atom+Function  
  ----- ------------  ---------------      ----- ------------  ---------------
    13      2.395835  1 F  py                47     -1.894029  1 F  fxxy       
    52     -1.894029  1 F  fyyy              54     -1.894029  1 F  fyzz       
    10      0.881159  1 F  py                16     -0.449829  1 F  py         
    37     -0.356437  1 F  fxxy              42     -0.356437  1 F  fyyy       
    44     -0.356437  1 F  fyzz               7      0.202823  1 F  py         

 Vector   20  Occ=0.000000D+00  E= 2.720135D+00
              MO Center=  1.2D-14, -2.1D-15, -9.6D-16, r^2= 1.4D+00
   Bfn.  Coefficient  Atom+Function         Bfn.  Coefficient  Atom+Function  
  ----- ------------  ---------------      ----- ------------  ---------------
    12      2.372062  1 F  px                46     -1.875235  1 F  fxxx       
    49     -1.875235  1 F  fxyy              51     -1.875235  1 F  fxzz       
     9      0.872416  1 F  px                15     -0.445365  1 F  px         
    36     -0.352901  1 F  fxxx              39     -0.352901  1 F  fxyy       
    41     -0.352901  1 F  fxzz              14     -0.342189  1 F  pz         

 Vector   21  Occ=0.000000D+00  E= 2.720135D+00
              MO Center= -3.1D-16,  5.2D-16, -1.9D-15, r^2= 1.4D+00
   Bfn.  Coefficient  Atom+Function         Bfn.  Coefficient  Atom+Function  
  ----- ------------  ---------------      ----- ------------  ---------------
    14      2.376855  1 F  pz                48     -1.879024  1 F  fxxz       
    53     -1.879024  1 F  fyyz              55     -1.879024  1 F  fzzz       
    11      0.874178  1 F  pz                17     -0.446265  1 F  pz         
    38     -0.353614  1 F  fxxz              43     -0.353614  1 F  fyyz       
    45     -0.353614  1 F  fzzz              12      0.347355  1 F  px         

 Vector   22  Occ=0.000000D+00  E= 2.844044D+00
              MO Center= -1.2D-14, -8.9D-15,  4.8D-15, r^2= 2.1D+00
   Bfn.  Coefficient  Atom+Function         Bfn.  Coefficient  Atom+Function  
  ----- ------------  ---------------      ----- ------------  ---------------
     4     11.529992  1 F  s                 30     -2.988219  1 F  dxx        
    33     -2.988219  1 F  dyy               35     -2.988219  1 F  dzz        
     2     -2.911796  1 F  s                  3     -2.418947  1 F  s          
     5      2.094902  1 F  s                 24     -2.024220  1 F  dxx        
    27     -2.024220  1 F  dyy               29     -2.024220  1 F  dzz        

 Vector   23  Occ=0.000000D+00  E= 2.846786D+00
              MO Center= -2.0D-15,  1.1D-14,  6.9D-16, r^2= 8.1D-01
   Bfn.  Coefficient  Atom+Function         Bfn.  Coefficient  Atom+Function  
  ----- ------------  ---------------      ----- ------------  ---------------
    24      1.185677  1 F  dxx               27     -0.941701  1 F  dyy        
    30     -0.664417  1 F  dxx               33      0.527701  1 F  dyy        
    29     -0.243975  1 F  dzz               26     -0.200577  1 F  dxz        
    35      0.136716  1 F  dzz               32      0.112397  1 F  dxz        
    25      0.050402  1 F  dxy               31     -0.028244  1 F  dxy        

 Vector   24  Occ=0.000000D+00  E= 2.846786D+00
              MO Center= -1.0D-15, -3.3D-15,  1.7D-16, r^2= 8.1D-01
   Bfn.  Coefficient  Atom+Function         Bfn.  Coefficient  Atom+Function  
  ----- ------------  ---------------      ----- ------------  ---------------
    29      1.211803  1 F  dzz               27     -0.818047  1 F  dyy        
    35     -0.679058  1 F  dzz               33      0.458409  1 F  dyy        
    24     -0.393755  1 F  dxx               28      0.305732  1 F  dyz        
    25     -0.261110  1 F  dxy               30      0.220649  1 F  dxx        
    34     -0.171323  1 F  dyz               31      0.146318  1 F  dxy        

 Vector   25  Occ=0.000000D+00  E= 2.846786D+00
              MO Center= -2.3D-15, -2.8D-15, -5.2D-15, r^2= 8.1D-01
   Bfn.  Coefficient  Atom+Function         Bfn.  Coefficient  Atom+Function  
  ----- ------------  ---------------      ----- ------------  ---------------
    28      1.810643  1 F  dyz               34     -1.014630  1 F  dyz        
    26     -0.992924  1 F  dxz               25      0.663466  1 F  dxy        
    32      0.556404  1 F  dxz               31     -0.371786  1 F  dxy        
    27      0.109554  1 F  dyy               29     -0.097061  1 F  dzz        
    33     -0.061391  1 F  dyy               35      0.054390  1 F  dzz        

 Vector   26  Occ=0.000000D+00  E= 2.846786D+00
              MO Center=  2.5D-16,  2.8D-15, -3.2D-15, r^2= 8.1D-01
   Bfn.  Coefficient  Atom+Function         Bfn.  Coefficient  Atom+Function  
  ----- ------------  ---------------      ----- ------------  ---------------
    25      1.878983  1 F  dxy               31     -1.052925  1 F  dxy        
    28     -0.920904  1 F  dyz               34      0.516047  1 F  dyz        
    26     -0.482684  1 F  dxz               32      0.270482  1 F  dxz        
    29      0.212360  1 F  dzz               24     -0.119922  1 F  dxx        
    35     -0.119000  1 F  dzz               27     -0.092439  1 F  dyy        

 Vector   27  Occ=0.000000D+00  E= 2.846786D+00
              MO Center= -1.1D-15,  3.3D-15,  5.1D-15, r^2= 8.1D-01
   Bfn.  Coefficient  Atom+Function         Bfn.  Coefficient  Atom+Function  
  ----- ------------  ---------------      ----- ------------  ---------------
    26      1.867608  1 F  dxz               32     -1.046551  1 F  dxz        
    25      0.840350  1 F  dxy               28      0.726027  1 F  dyz        
    31     -0.470907  1 F  dxy               34     -0.406844  1 F  dyz        
    24      0.084542  1 F  dxx               27     -0.077505  1 F  dyy        
    30     -0.047375  1 F  dxx               33      0.043431  1 F  dyy        

 Vector   28  Occ=0.000000D+00  E= 2.941067D+00
              MO Center=  2.4D-15,  4.5D-16,  7.6D-16, r^2= 9.3D-01
   Bfn.  Coefficient  Atom+Function         Bfn.  Coefficient  Atom+Function  
  ----- ------------  ---------------      ----- ------------  ---------------
    50      1.898123  1 F  fxyz              51     -1.759029  1 F  fxzz       
    53      1.015588  1 F  fyyz              46      0.692813  1 F  fxxx       
    54     -0.563514  1 F  fyzz              55     -0.468242  1 F  fzzz       
    47      0.391755  1 F  fxxy              48      0.389137  1 F  fxxz       
    49     -0.319409  1 F  fxyy              40     -0.257070  1 F  fxyz       

 Vector   29  Occ=0.000000D+00  E= 2.941067D+00
              MO Center=  8.3D-16, -2.7D-15,  1.3D-15, r^2= 9.3D-01
   Bfn.  Coefficient  Atom+Function         Bfn.  Coefficient  Atom+Function  
  ----- ------------  ---------------      ----- ------------  ---------------
    54      1.394799  1 F  fyzz              53     -1.220951  1 F  fyyz       
    51     -1.192519  1 F  fxzz              49      1.184258  1 F  fxyy       
    50      1.146283  1 F  fxyz              52     -0.560922  1 F  fyyy       
    55      0.497114  1 F  fzzz              47      0.287967  1 F  fxxy       
    48     -0.270391  1 F  fxxz              44     -0.188903  1 F  fyzz       

 Vector   30  Occ=0.000000D+00  E= 2.941067D+00
              MO Center= -9.5D-16, -4.1D-15, -1.4D-15, r^2= 9.3D-01
   Bfn.  Coefficient  Atom+Function         Bfn.  Coefficient  Atom+Function  
  ----- ------------  ---------------      ----- ------------  ---------------
    50      2.647957  1 F  fxyz              47     -1.654396  1 F  fxxy       
    49      0.669790  1 F  fxyy              51      0.608281  1 F  fxzz       
    52      0.508745  1 F  fyyy              53      0.434236  1 F  fyyz       
    46     -0.426024  1 F  fxxx              48     -0.414124  1 F  fxxz       
    40     -0.358623  1 F  fxyz              37      0.224061  1 F  fxxy       

 Vector   31  Occ=0.000000D+00  E= 2.941067D+00
              MO Center= -3.1D-15, -2.3D-15, -2.7D-15, r^2= 9.3D-01
   Bfn.  Coefficient  Atom+Function         Bfn.  Coefficient  Atom+Function  
  ----- ------------  ---------------      ----- ------------  ---------------
    50      2.242381  1 F  fxyz              51      1.443281  1 F  fxzz       
    47      1.403895  1 F  fxxy              49     -0.982592  1 F  fxyy       
[...]
    47     -1.296266  1 F  fxxy              41      1.169734  1 F  fxzz       
    50      0.714800  1 F  fxyz              42     -0.674836  1 F  fyyy       
    51     -0.589302  1 F  fxzz              44     -0.548517  1 F  fyzz       
    43     -0.498091  1 F  fyyz              36     -0.377834  1 F  fxxx       

 Vector   43  Occ=0.000000D+00  E= 8.554677D+00
              MO Center= -2.0D-16,  7.4D-17, -3.7D-16, r^2= 4.0D-01
   Bfn.  Coefficient  Atom+Function         Bfn.  Coefficient  Atom+Function  
  ----- ------------  ---------------      ----- ------------  ---------------
    39      2.394172  1 F  fxyy              43      1.225888  1 F  fyyz       
    49     -1.206162  1 F  fxyy              41     -0.922576  1 F  fxzz       
    37      0.711793  1 F  fxxy              40      0.676413  1 F  fxyz       
    44     -0.663861  1 F  fyzz              38      0.627283  1 F  fxxz       
    45     -0.617724  1 F  fzzz              53     -0.617591  1 F  fyyz       

 Vector   44  Occ=0.000000D+00  E= 8.554677D+00
              MO Center= -1.1D-15,  1.1D-15, -2.7D-16, r^2= 4.0D-01
   Bfn.  Coefficient  Atom+Function         Bfn.  Coefficient  Atom+Function  
  ----- ------------  ---------------      ----- ------------  ---------------
    38      2.769128  1 F  fxxz              48     -1.395062  1 F  fxxz       
    40     -1.355210  1 F  fxyz              43     -1.254874  1 F  fyyz       
    50      0.682742  1 F  fxyz              44      0.651815  1 F  fyzz       
    53      0.632194  1 F  fyyz              45     -0.504752  1 F  fzzz       
    54     -0.328378  1 F  fyzz              55      0.254289  1 F  fzzz       

 Vector   45  Occ=0.000000D+00  E= 8.554677D+00
              MO Center= -1.0D-16,  1.2D-15,  1.6D-16, r^2= 4.0D-01
   Bfn.  Coefficient  Atom+Function         Bfn.  Coefficient  Atom+Function  
  ----- ------------  ---------------      ----- ------------  ---------------
    43      2.409896  1 F  fyyz              39     -1.277112  1 F  fxyy       
    53     -1.214084  1 F  fyyz              40     -1.028054  1 F  fxyz       
    41      0.885698  1 F  fxzz              45     -0.877842  1 F  fzzz       
    49      0.643397  1 F  fxyy              50      0.517924  1 F  fxyz       
    44      0.509654  1 F  fyzz              51     -0.446207  1 F  fxzz       

 Vector   46  Occ=0.000000D+00  E= 8.939927D+00
              MO Center=  4.8D-16,  2.3D-16, -8.7D-17, r^2= 3.0D-01
   Bfn.  Coefficient  Atom+Function         Bfn.  Coefficient  Atom+Function  
  ----- ------------  ---------------      ----- ------------  ---------------
    18      1.117914  1 F  dxx               21     -0.924533  1 F  dyy        
    24     -0.776341  1 F  dxx               27      0.642047  1 F  dyy        
    30      0.300616  1 F  dxx               33     -0.248614  1 F  dyy        
    23     -0.193380  1 F  dzz               19     -0.185518  1 F  dxy        
    29      0.134294  1 F  dzz               25      0.128834  1 F  dxy        

 Vector   47  Occ=0.000000D+00  E= 8.939927D+00
              MO Center= -1.2D-16,  1.0D-15,  1.2D-15, r^2= 3.0D-01
   Bfn.  Coefficient  Atom+Function         Bfn.  Coefficient  Atom+Function  
  ----- ------------  ---------------      ----- ------------  ---------------
    23      1.072261  1 F  dzz               19     -0.898512  1 F  dxy        
    29     -0.744637  1 F  dzz               21     -0.649043  1 F  dyy        
    25      0.623976  1 F  dxy               27      0.450731  1 F  dyy        
    18     -0.423218  1 F  dxx               24      0.293906  1 F  dxx        
    35      0.288339  1 F  dzz               31     -0.241617  1 F  dxy        

 Vector   48  Occ=0.000000D+00  E= 8.939927D+00
              MO Center= -2.8D-16, -1.4D-15, -7.5D-16, r^2= 3.0D-01
   Bfn.  Coefficient  Atom+Function         Bfn.  Coefficient  Atom+Function  
  ----- ------------  ---------------      ----- ------------  ---------------
    22      1.815673  1 F  dyz               28     -1.260903  1 F  dyz        
    19      0.831970  1 F  dxy               25     -0.577766  1 F  dxy        
    34      0.488249  1 F  dyz               20      0.296824  1 F  dxz        
    23      0.285555  1 F  dzz               31      0.223723  1 F  dxy        
    26     -0.206131  1 F  dxz               29     -0.198305  1 F  dzz        

 Vector   49  Occ=0.000000D+00  E= 8.939927D+00
              MO Center=  1.6D-15,  2.3D-17, -3.3D-16, r^2= 3.0D-01
   Bfn.  Coefficient  Atom+Function         Bfn.  Coefficient  Atom+Function  
  ----- ------------  ---------------      ----- ------------  ---------------
    20      1.859966  1 F  dxz               26     -1.291663  1 F  dxz        
    19     -0.786249  1 F  dxy               25      0.546015  1 F  dxy        
    32      0.500159  1 F  dxz               23     -0.245225  1 F  dzz        
    21      0.218671  1 F  dyy               31     -0.211429  1 F  dxy        
    22      0.179959  1 F  dyz               29      0.170298  1 F  dzz        

 Vector   50  Occ=0.000000D+00  E= 8.939927D+00
              MO Center=  5.0D-16, -1.1D-15,  4.2D-16, r^2= 3.0D-01
   Bfn.  Coefficient  Atom+Function         Bfn.  Coefficient  Atom+Function  
  ----- ------------  ---------------      ----- ------------  ---------------
    19      1.474876  1 F  dxy               25     -1.024235  1 F  dxy        
    22     -0.988870  1 F  dyz               20      0.878209  1 F  dxz        
    28      0.686726  1 F  dyz               26     -0.609877  1 F  dxz        
    31      0.396606  1 F  dxy               23      0.337101  1 F  dzz        
    21     -0.293126  1 F  dyy               34     -0.265915  1 F  dyz        

 Vector   51  Occ=0.000000D+00  E= 1.412828D+01
              MO Center=  2.8D-15,  3.4D-15,  7.4D-16, r^2= 6.1D-01
   Bfn.  Coefficient  Atom+Function         Bfn.  Coefficient  Atom+Function  
  ----- ------------  ---------------      ----- ------------  ---------------
     2     10.526982  1 F  s                  4      9.882002  1 F  s          
     1      5.669610  1 F  s                  3     -5.371387  1 F  s          
    24     -5.218954  1 F  dxx               27     -5.218954  1 F  dyy        
    29     -5.218954  1 F  dzz               18     -2.017844  1 F  dxx        
    21     -2.017844  1 F  dyy               23     -2.017844  1 F  dzz        

 Vector   52  Occ=0.000000D+00  E= 1.732869D+01
              MO Center= -1.0D-15, -7.8D-15,  3.7D-16, r^2= 1.1D+00
   Bfn.  Coefficient  Atom+Function         Bfn.  Coefficient  Atom+Function  
  ----- ------------  ---------------      ----- ------------  ---------------
    10     17.410725  1 F  py                37     -8.001778  1 F  fxxy       
    42     -8.001778  1 F  fyyy              44     -8.001778  1 F  fyzz       
    47     -4.721473  1 F  fxxy              52     -4.721473  1 F  fyyy       
    54     -4.721473  1 F  fyzz               7     -3.149276  1 F  py         
    13      2.608948  1 F  py                 9      2.360267  1 F  px         

 Vector   53  Occ=0.000000D+00  E= 1.732869D+01
              MO Center= -8.3D-15,  1.0D-15, -2.4D-15, r^2= 1.1D+00
   Bfn.  Coefficient  Atom+Function         Bfn.  Coefficient  Atom+Function  
  ----- ------------  ---------------      ----- ------------  ---------------
     9     16.780812  1 F  px                36     -7.712277  1 F  fxxx       
    39     -7.712277  1 F  fxyy              41     -7.712277  1 F  fxzz       
    11      4.849357  1 F  pz                46     -4.550651  1 F  fxxx       
    49     -4.550651  1 F  fxyy              51     -4.550651  1 F  fxzz       
     6     -3.035336  1 F  px                12      2.514557  1 F  px         

 Vector   54  Occ=0.000000D+00  E= 1.732869D+01
              MO Center=  2.7D-16, -6.7D-17, -9.9D-16, r^2= 1.1D+00
   Bfn.  Coefficient  Atom+Function         Bfn.  Coefficient  Atom+Function  
  ----- ------------  ---------------      ----- ------------  ---------------
    11     16.887509  1 F  pz                38     -7.761314  1 F  fxxz       
    43     -7.761314  1 F  fyyz              45     -7.761314  1 F  fzzz       
     9     -4.708000  1 F  px                48     -4.579586  1 F  fxxz       
    53     -4.579586  1 F  fyyz              55     -4.579586  1 F  fzzz       
     8     -3.054636  1 F  pz                14      2.530545  1 F  pz         

 Vector   55  Occ=0.000000D+00  E= 2.271324D+01
              MO Center= -5.1D-16, -8.6D-16, -1.0D-16, r^2= 2.8D-01
   Bfn.  Coefficient  Atom+Function         Bfn.  Coefficient  Atom+Function  
  ----- ------------  ---------------      ----- ------------  ---------------
     4      8.919449  1 F  s                  2      7.826040  1 F  s          
    24     -4.049668  1 F  dxx               27     -4.049668  1 F  dyy        
    29     -4.049668  1 F  dzz               18     -3.383825  1 F  dxx        
    21     -3.383825  1 F  dyy               23     -3.383825  1 F  dzz        
     1      2.558403  1 F  s                 30     -1.437086  1 F  dxx        

 Line search: 
     step=-1.00 grad= 0.0D+00 hess=-3.8D-07 energy=    -99.801038 mode=accept  
 new step=-1.00                   predicted energy=    -99.801038

          --------
          Step   1
          --------


                         Geometry "geometry" -> "geometry"
                         ---------------------------------

 Output coordinates in angstroms (scale by  1.889725989 to convert to a.u.)

  No.       Tag          Charge          X              Y              Z
 ---- ---------------- ---------- -------------- -------------- --------------
    1 F                    9.0000     0.00000000     0.00000000     0.00000000

      Atomic Mass 
      ----------- 

      F                 18.998400


 Effective nuclear repulsion energy (a.u.)       0.0000000000

            Nuclear Dipole moment (a.u.) 
            ----------------------------
        X                 Y               Z
 ---------------- ---------------- ----------------
     0.0000000000     0.0000000000     0.0000000000


                                 NWChem DFT Module
                                 -----------------




 Summary of "ao basis" -> "ao basis" (cartesian)
 ------------------------------------------------------------------------------
       Tag                 Description            Shells   Functions and Types
 ---------------- ------------------------------  ------  ---------------------
 F                        aug-cc-pVTZ               14       55   5s4p3d2f



  The DFT is already converged 

         Total DFT energy =    -99.801037745105


            General Information
            -------------------
          SCF calculation type: DFT
          Wavefunction type:  closed shell.
          No. of atoms     :     1
          No. of electrons :    10
           Alpha electrons :     5
            Beta electrons :     5
          Charge           :    -1
          Spin multiplicity:     1
          Use of symmetry is: off; symmetry adaption is: off
          Maximum number of iterations: 200
          AO basis - number of functions:    55
                     number of shells:    14
          Convergence on energy requested:  1.00D-06
          Convergence on density requested:  1.00D-05
          Convergence on gradient requested:  5.00D-04

              XC Information
              --------------
          PerdewBurkeErnzerhof Exchange Functional  1.000          
            Perdew 1991 LDA Correlation Functional  1.000 local    
           PerdewBurkeErnz. Correlation Functional  1.000 non-local

             Grid Information
             ----------------
          Grid used for XC integration:  medium    
          Radial quadrature: Mura-Knowles        
          Angular quadrature: Lebedev. 
          Tag              B.-S. Rad. Rad. Pts. Rad. Cut. Ang. Pts.
          ---              ---------- --------- --------- ---------
          F                   0.50       49           6.0       434
          Grid pruning is: on 
          Number of quadrature shells:    49
          Spatial weights used:  Erf1

          Convergence Information
          -----------------------
          Convergence aids based upon iterative change in 
          total energy or number of iterations. 
          Levelshifting, if invoked, occurs when the 
          HOMO/LUMO gap drops below (HL_TOL):  1.00D-02
          DIIS, if invoked, will attempt to extrapolate 
          using up to (NFOCK): 10 stored Fock matrices.

                    Damping(40%)  Levelshifting(0.0)       DIIS
                  --------------- ------------------- ---------------
          dE  on:    start            ASAP                start   
          dE off:  200 iters        200 iters           200 iters 


      Screening Tolerance Information
      -------------------------------
          Density screening/tol_rho:  1.00D-10
          AO Gaussian exp screening on grid/accAOfunc:  14
          CD Gaussian exp screening on grid/accCDfunc:  20
          XC Gaussian exp screening on grid/accXCfunc:  20
          Schwarz screening/accCoul:  1.00D-08



                            NWChem DFT Gradient Module
                            --------------------------



  charge          =  -1.00
  wavefunction    = closed shell



                         DFT ENERGY GRADIENTS

    atom               coordinates                        gradient
                 x          y          z           x          y          z
   1 F       0.000000   0.000000   0.000000    0.000000   0.000000  -0.000000

                 ----------------------------------------
                 |  Time  |  1-e(secs)   |  2-e(secs)   |
                 ----------------------------------------
                 |  CPU   |       0.00   |       0.00   |
                 ----------------------------------------
                 |  WALL  |       0.00   |       0.00   |
                 ----------------------------------------

  Step       Energy      Delta E   Gmax     Grms     Xrms     Xmax   Walltime
  ---- ---------------- -------- -------- -------- -------- -------- --------
@    1     -99.80103775 -3.8D-07  0.00000  0.00000  0.00000  0.00000      5.5
                                     ok       ok       ok       ok  


      ----------------------
      Optimization converged
      ----------------------


  Step       Energy      Delta E   Gmax     Grms     Xrms     Xmax   Walltime
  ---- ---------------- -------- -------- -------- -------- -------- --------
@    1     -99.80103775 -3.8D-07  0.00000  0.00000  0.00000  0.00000      5.5
                                     ok       ok       ok       ok  



                         Geometry "geometry" -> "geometry"
                         ---------------------------------

 Output coordinates in angstroms (scale by  1.889725989 to convert to a.u.)

  No.       Tag          Charge          X              Y              Z
 ---- ---------------- ---------- -------------- -------------- --------------
    1 F                    9.0000     0.00000000     0.00000000     0.00000000

      Atomic Mass 
      ----------- 

      F                 18.998400


 Effective nuclear repulsion energy (a.u.)       0.0000000000

            Nuclear Dipole moment (a.u.) 
            ----------------------------
        X                 Y               Z
 ---------------- ---------------- ----------------
     0.0000000000     0.0000000000     0.0000000000


 Task  times  cpu:        5.0s     wall:        5.3s


                                NWChem Input Module
                                -------------------


 Summary of allocated global arrays
-----------------------------------
  No active global arrays


MA_summarize_allocated_blocks: starting scan ...
MA_summarize_allocated_blocks: scan completed: 0 heap blocks, 0 stack blocks
MA usage statistics:

	allocation statistics:
					      heap	     stack
					      ----	     -----
	current number of blocks	         0	         0
	maximum number of blocks	        24	        53
	current total bytes		         0	         0
	maximum total bytes		 268650952	  42069960
	maximum total K-bytes		    268651	     42070
	maximum total M-bytes		       269	        43


                                     CITATION
                                     --------
                Please cite the following reference when publishing
                           results obtained with NWChem:

          E. Apra, E. J. Bylaska, W. A. de Jong, N. Govind, K. Kowalski,
       T. P. Straatsma, M. Valiev, H. J. J. van Dam, Y. Alexeev, J. Anchell,
       V. Anisimov, F. W. Aquino, R. Atta-Fynn, J. Autschbach, N. P. Bauman,
     J. C. Becca, D. E. Bernholdt, K. Bhaskaran-Nair, S. Bogatko, P. Borowski,
         J. Boschen, J. Brabec, A. Bruner, E. Cauet, Y. Chen, G. N. Chuev,
      C. J. Cramer, J. Daily, M. J. O. Deegan, T. H. Dunning Jr., M. Dupuis,
   K. G. Dyall, G. I. Fann, S. A. Fischer, A. Fonari, H. Fruchtl, L. Gagliardi,
      J. Garza, N. Gawande, S. Ghosh, K. Glaesemann, A. W. Gotz, J. Hammond,
       V. Helms, E. D. Hermes, K. Hirao, S. Hirata, M. Jacquelin, L. Jensen,
   B. G. Johnson, H. Jonsson, R. A. Kendall, M. Klemm, R. Kobayashi, V. Konkov,
      S. Krishnamoorthy, M. Krishnan, Z. Lin, R. D. Lins, R. J. Littlefield,
      A. J. Logsdail, K. Lopata, W. Ma, A. V. Marenich, J. Martin del Campo,
   D. Mejia-Rodriguez, J. E. Moore, J. M. Mullin, T. Nakajima, D. R. Nascimento,
    J. A. Nichols, P. J. Nichols, J. Nieplocha, A. Otero-de-la-Roza, B. Palmer,
    A. Panyala, T. Pirojsirikul, B. Peng, R. Peverati, J. Pittner, L. Pollack,
   R. M. Richard, P. Sadayappan, G. C. Schatz, W. A. Shelton, D. W. Silverstein,
   D. M. A. Smith, T. A. Soares, D. Song, M. Swart, H. L. Taylor, G. S. Thomas,
            V. Tipparaju, D. G. Truhlar, K. Tsemekhman, T. Van Voorhis,
      A. Vazquez-Mayagoitia, P. Verma, O. Villa, A. Vishnu, K. D. Vogiatzis,
        D. Wang, J. H. Weare, M. J. Williamson, T. L. Windus, K. Wolinski,
        A. T. Wong, Q. Wu, C. Yang, Q. Yu, M. Zacharias, Z. Zhang, Y. Zhao,
                                and R. J. Harrison
                        "NWChem: Past, present, and future
                         J. Chem. Phys. 152, 184102 (2020)
                               doi:10.1063/5.0004997

                                      AUTHORS
                                      -------
  E. Apra, E. J. Bylaska, N. Govind, K. Kowalski, M. Valiev, D. Mejia-Rodriguez,
       A. Kunitsa, N. P. Bauman, A. Panyala, W. A. de Jong, T. P. Straatsma,
   H. J. J. van Dam, D. Wang, T. L. Windus, J. Hammond, J. Autschbach, A. Woods,
    K. Bhaskaran-Nair, J. Brabec, K. Lopata, S. A. Fischer, S. Krishnamoorthy,
     M. Jacquelin, W. Ma, M. Klemm, O. Villa, Y. Chen, V. Anisimov, F. Aquino,
     S. Hirata, M. T. Hackler, E. Hermes, L. Jensen, J. E. Moore, J. C. Becca,
      V. Konjkov, T. Risthaus, M. Malagoli, A. Marenich, A. Otero-de-la-Roza,
        J. Mullin, P. Nichols, R. Peverati, J. Pittner, Y. Zhao, P.-D. Fan,
        A. Fonari, M. J. Williamson, R. J. Harrison, J. R. Rehr, M. Dupuis,
     D. Silverstein, D. M. A. Smith, J. Nieplocha, V. Tipparaju, M. Krishnan,
     B. E. Van Kuiken, A. Vazquez-Mayagoitia, M. Swart, Q. Wu, T. Van Voorhis,
     A. A. Auer, M. Nooijen, L. D. Crosby, E. Brown, G. Cisneros, G. I. Fann,
   H. Fruchtl, J. Garza, K. Hirao, R. A. Kendall, J. A. Nichols, K. Tsemekhman,
    K. Wolinski, J. Anchell, D. E. Bernholdt, P. Borowski, T. Clark, D. Clerc,
   H. Dachsel, M. J. O. Deegan, K. Dyall, D. Elwood, E. Glendening, M. Gutowski,
   A. C. Hess, J. Jaffe, B. G. Johnson, J. Ju, R. Kobayashi, R. Kutteh, Z. Lin,
   R. Littlefield, X. Long, B. Meng, T. Nakajima, S. Niu, L. Pollack, M. Rosing,
   K. Glaesemann, G. Sandrone, M. Stave, H. Taylor, G. Thomas, J. H. van Lenthe,
                               A. T. Wong, Z. Zhang.

 Total times  cpu:        5.1s     wall:        5.5s
