 argument  1 = 0e/mol.nwi
                                         
                                         


             Northwest Computational Chemistry Package (NWChem) 7.2.2
             --------------------------------------------------------


                    Environmental Molecular Sciences Laboratory
                       Pacific Northwest National Laboratory
                                Richland, WA 99352

                              Copyright (c) 1994-2022
                       Pacific Northwest National Laboratory
                            Battelle Memorial Institute

             NWChem is an open-source computational chemistry package
                        distributed under the terms of the
                      Educational Community License (ECL) 2.0
             A copy of the license is included with this distribution
                              in the LICENSE.TXT file

                                  ACKNOWLEDGMENT
                                  --------------

            This software and its documentation were developed at the
            EMSL at Pacific Northwest National Laboratory, a multiprogram
            national laboratory, operated for the U.S. Department of Energy
            by Battelle under Contract Number DE-AC05-76RL01830. Support
            for this work was provided by the Department of Energy Office
            of Biological and Environmental Research, Office of Basic
            Energy Sciences, and the Office of Advanced Scientific Computing.


           Job information
           ---------------

    hostname        = r005.ib.bridges2.psc.edu
    program         = nwchem
    date            = Tue Oct  1 15:24:37 2024

    compiled        = Mon_Mar_18_17:03:37_2024
    source          = /ocean/projects/pscstaff/mmadrid/nwchem-7.2.2
    nwchem branch   = 7.2.2
    nwchem revision = 74936fb9
    ga revision     = 5.8.0
    use scalapack   = F
    input           = 0e/mol.nwi
    prefix          = dft.
    data base       = .//dft.db
    status          = startup
    nproc           =       15
    time left       =     -1s



           Memory information
           ------------------

    heap     =   67108858 doubles =    512.0 Mbytes
    stack    =   67108863 doubles =    512.0 Mbytes
    global   =  134217728 doubles =   1024.0 Mbytes (distinct from heap & stack)
    total    =  268435449 doubles =   2048.0 Mbytes
    verify   = yes
    hardfail = no 


           Directory information
           ---------------------

  0 permanent = ./
  0 scratch   = /jet/home/hmt47/nwchem_scratch/




                                NWChem Input Module
                                -------------------


  library name resolved from: environment
  library file name is: </opt/packages/nwchem/nwchem7.2.2/share/nwchem/libraries/>
  


 Summary of "ao basis" -> "" (cartesian)
 ------------------------------------------------------------------------------
       Tag                 Description            Shells   Functions and Types
 ---------------- ------------------------------  ------  ---------------------
 *                        aug-cc-pVTZ                 on all atoms 


  pbe96 is a nonlocal functional; adding pw91lda local functional. 

 Scaling coordinates for geometry "geometry" by  1.889725989
 (inverse scale =  0.529177249)



                             Geometry "geometry" -> ""
                             -------------------------

 Output coordinates in angstroms (scale by  1.889725989 to convert to a.u.)

  No.       Tag          Charge          X              Y              Z
 ---- ---------------- ---------- -------------- -------------- --------------
    1 C                    6.0000    -0.03433165    -0.02554049    -0.06683711
    2 C                    6.0000     0.02658507     0.03936301     1.49309442
    3 O                    8.0000    -0.22529584     1.14854729    -0.50087254
    4 O                    8.0000     0.09676324    -1.11228387    -0.66420303
    5 H                    1.0000     0.84827048     0.69326892     1.80485718
    6 H                    1.0000    -0.91735803     0.43489589     1.88389379
    7 Cl                  17.0000     0.29981173    -1.54394876     2.42102529

      Atomic Mass 
      ----------- 

      C                 12.000000
      O                 15.994910
      H                  1.007825
      Cl                34.968850


 Effective nuclear repulsion energy (a.u.)     199.8636727654

            Nuclear Dipole moment (a.u.) 
            ----------------------------
        X                 Y               Z
 ---------------- ---------------- ----------------
     7.4700331268   -46.7630112156    83.3050178996


            XYZ format geometry
            -------------------
     7
 geometry
 C                    -0.03433165    -0.02554049    -0.06683711
 C                     0.02658507     0.03936301     1.49309442
 O                    -0.22529584     1.14854729    -0.50087254
 O                     0.09676324    -1.11228387    -0.66420303
 H                     0.84827048     0.69326892     1.80485718
 H                    -0.91735803     0.43489589     1.88389379
 Cl                    0.29981173    -1.54394876     2.42102529

 ==============================================================================
                                internuclear distances
 ------------------------------------------------------------------------------
       center one      |      center two      | atomic units |  angstroms
 ------------------------------------------------------------------------------
    2 C                |   1 C                |     2.95264  |     1.56247
    3 O                |   1 C                |     2.39283  |     1.26623
    4 O                |   1 C                |     2.35651  |     1.24701
    5 H                |   2 C                |     2.07005  |     1.09542
    6 H                |   2 C                |     2.07026  |     1.09554
    7 Cl               |   2 C                |     3.50624  |     1.85542
 ------------------------------------------------------------------------------
                         number of included internuclear distances:          6
 ==============================================================================



 ==============================================================================
                                 internuclear angles
 ------------------------------------------------------------------------------
        center 1       |       center 2       |       center 3       |  degrees
 ------------------------------------------------------------------------------
    2 C                |   1 C                |   3 O                |   108.03
    2 C                |   1 C                |   4 O                |   120.69
    3 O                |   1 C                |   4 O                |   131.28
    1 C                |   2 C                |   5 H                |   109.77
    1 C                |   2 C                |   6 H                |   109.73
    1 C                |   2 C                |   7 Cl               |   118.01
    5 H                |   2 C                |   6 H                |   109.22
    5 H                |   2 C                |   7 Cl               |   104.87
    6 H                |   2 C                |   7 Cl               |   104.87
 ------------------------------------------------------------------------------
                            number of included internuclear angles:          9
 ==============================================================================




                                 NWChem DFT Module
                                 -----------------


                      Basis "ao basis" -> "ao basis" (cartesian)
                      -----
  C (Carbon)
  ----------
            Exponent  Coefficients 
       -------------- ---------------------------------------------------------
  1 S  8.23600000E+03  0.000531
  1 S  1.23500000E+03  0.004108
  1 S  2.80800000E+02  0.021087
  1 S  7.92700000E+01  0.081853
  1 S  2.55900000E+01  0.234817
  1 S  8.99700000E+00  0.434401
  1 S  3.31900000E+00  0.346129
  1 S  3.64300000E-01 -0.008983

  2 S  8.23600000E+03 -0.000113
  2 S  1.23500000E+03 -0.000878
  2 S  2.80800000E+02 -0.004540
  2 S  7.92700000E+01 -0.018133
  2 S  2.55900000E+01 -0.055760
  2 S  8.99700000E+00 -0.126895
  2 S  3.31900000E+00 -0.170352
  2 S  3.64300000E-01  0.598684

  3 S  9.05900000E-01  1.000000

  4 S  1.28500000E-01  1.000000

  5 S  4.40200000E-02  1.000000

  6 P  1.87100000E+01  0.014031
  6 P  4.13300000E+00  0.086866
  6 P  1.20000000E+00  0.290216

  7 P  3.82700000E-01  1.000000

  8 P  1.20900000E-01  1.000000

  9 P  3.56900000E-02  1.000000

 10 D  1.09700000E+00  1.000000

 11 D  3.18000000E-01  1.000000

 12 D  1.00000000E-01  1.000000

 13 F  7.61000000E-01  1.000000

 14 F  2.68000000E-01  1.000000

  O (Oxygen)
  ----------
            Exponent  Coefficients 
       -------------- ---------------------------------------------------------
  1 S  1.53300000E+04  0.000508
  1 S  2.29900000E+03  0.003929
  1 S  5.22400000E+02  0.020243
  1 S  1.47300000E+02  0.079181
  1 S  4.75500000E+01  0.230687
  1 S  1.67600000E+01  0.433118
  1 S  6.20700000E+00  0.350260
  1 S  6.88200000E-01 -0.008154

  2 S  1.53300000E+04 -0.000115
  2 S  2.29900000E+03 -0.000895
  2 S  5.22400000E+02 -0.004636
  2 S  1.47300000E+02 -0.018724
  2 S  4.75500000E+01 -0.058463
  2 S  1.67600000E+01 -0.136463
  2 S  6.20700000E+00 -0.175740
  2 S  6.88200000E-01  0.603418

  3 S  1.75200000E+00  1.000000

  4 S  2.38400000E-01  1.000000

  5 S  7.37600000E-02  1.000000

  6 P  3.44600000E+01  0.015928
  6 P  7.74900000E+00  0.099740
  6 P  2.28000000E+00  0.310492

  7 P  7.15600000E-01  1.000000

  8 P  2.14000000E-01  1.000000

  9 P  5.97400000E-02  1.000000

 10 D  2.31400000E+00  1.000000

 11 D  6.45000000E-01  1.000000

 12 D  2.14000000E-01  1.000000

 13 F  1.42800000E+00  1.000000

 14 F  5.00000000E-01  1.000000

  H (Hydrogen)
  ------------
            Exponent  Coefficients 
       -------------- ---------------------------------------------------------
  1 S  3.38700000E+01  0.006068
  1 S  5.09500000E+00  0.045308
  1 S  1.15900000E+00  0.202822

  2 S  3.25800000E-01  1.000000

  3 S  1.02700000E-01  1.000000

  4 S  2.52600000E-02  1.000000

  5 P  1.40700000E+00  1.000000

  6 P  3.88000000E-01  1.000000

  7 P  1.02000000E-01  1.000000

  8 D  1.05700000E+00  1.000000

  9 D  2.47000000E-01  1.000000

  Cl (Chlorine)
  -------------
            Exponent  Coefficients 
       -------------- ---------------------------------------------------------
  1 S  4.56100000E+05  0.000049
  1 S  6.83300000E+04  0.000383
  1 S  1.55500000E+04  0.002009
  1 S  4.40500000E+03  0.008386
  1 S  1.43900000E+03  0.029470
  1 S  5.20400000E+02  0.087833
  1 S  2.03100000E+02  0.211473
  1 S  8.39600000E+01  0.365364
  1 S  3.62000000E+01  0.340884
  1 S  1.58300000E+01  0.102133
  1 S  6.33400000E+00  0.003117
  1 S  2.69400000E+00  0.001058
  1 S  4.31300000E-01  0.000156

  2 S  4.56100000E+05 -0.000014
  2 S  6.83300000E+04 -0.000107
  2 S  1.55500000E+04 -0.000565
  2 S  4.40500000E+03 -0.002361
  2 S  1.43900000E+03 -0.008459
  2 S  5.20400000E+02 -0.025964
  2 S  2.03100000E+02 -0.068636
  2 S  8.39600000E+01 -0.141874
  2 S  3.62000000E+01 -0.199319
  2 S  1.58300000E+01 -0.019566
  2 S  6.33400000E+00  0.499741
  2 S  2.69400000E+00  0.563736
  2 S  4.31300000E-01 -0.008351

  3 S  4.56100000E+05  0.000004
  3 S  6.83300000E+04  0.000032
  3 S  1.55500000E+04  0.000171
  3 S  4.40500000E+03  0.000714
  3 S  1.43900000E+03  0.002567
  3 S  5.20400000E+02  0.007886
  3 S  2.03100000E+02  0.021087
  3 S  8.39600000E+01  0.044226
  3 S  3.62000000E+01  0.065167
  3 S  1.58300000E+01  0.006030
  3 S  6.33400000E+00 -0.206495
  3 S  2.69400000E+00 -0.405871
  3 S  4.31300000E-01  0.725661

  4 S  9.76800000E-01  1.000000

  5 S  1.62500000E-01  1.000000

  6 S  5.91000000E-02  1.000000

  7 P  6.63300000E+02  0.002404
  7 P  1.56800000E+02  0.019215
  7 P  4.99800000E+01  0.088510
  7 P  1.84200000E+01  0.256020
  7 P  7.24000000E+00  0.436927
  7 P  2.92200000E+00  0.350334
  7 P  3.81800000E-01 -0.004584

  8 P  6.63300000E+02 -0.000652
  8 P  1.56800000E+02 -0.005194
  8 P  4.99800000E+01 -0.024694
  8 P  1.84200000E+01 -0.072817
  8 P  7.24000000E+00 -0.134030
  8 P  2.92200000E+00 -0.094774
  8 P  3.81800000E-01  0.564667

  9 P  1.02200000E+00  1.000000

 10 P  1.30100000E-01  1.000000

 11 P  4.19000000E-02  1.000000

 12 D  1.04600000E+00  1.000000

 13 D  3.44000000E-01  1.000000

 14 D  1.35000000E-01  1.000000

 15 F  7.06000000E-01  1.000000

 16 F  3.12000000E-01  1.000000



 Summary of "ao basis" -> "ao basis" (cartesian)
 ------------------------------------------------------------------------------
       Tag                 Description            Shells   Functions and Types
 ---------------- ------------------------------  ------  ---------------------
 C                        aug-cc-pVTZ               14       55   5s4p3d2f
 O                        aug-cc-pVTZ               14       55   5s4p3d2f
 H                        aug-cc-pVTZ                9       25   4s3p2d
 Cl                       aug-cc-pVTZ               16       59   6s5p3d2f




 Summary of "ao basis" -> "ao basis" (cartesian)
 ------------------------------------------------------------------------------
       Tag                 Description            Shells   Functions and Types
 ---------------- ------------------------------  ------  ---------------------
 C                        aug-cc-pVTZ               14       55   5s4p3d2f
 O                        aug-cc-pVTZ               14       55   5s4p3d2f
 H                        aug-cc-pVTZ                9       25   4s3p2d
 Cl                       aug-cc-pVTZ               16       59   6s5p3d2f


  Caching 1-el integrals 

            General Information
            -------------------
          SCF calculation type: DFT
          Wavefunction type:  spin polarized.
          No. of atoms     :     7
          No. of electrons :    47
           Alpha electrons :    24
            Beta electrons :    23
          Charge           :     0
          Spin multiplicity:     2
          Use of symmetry is: off; symmetry adaption is: off
          Maximum number of iterations: 200
          AO basis - number of functions:   329
                     number of shells:    90
          Convergence on energy requested:  1.00D-06
          Convergence on density requested:  1.00D-05
          Convergence on gradient requested:  5.00D-04

              XC Information
              --------------
          PerdewBurkeErnzerhof Exchange Functional  1.000          
            Perdew 1991 LDA Correlation Functional  1.000 local    
           PerdewBurkeErnz. Correlation Functional  1.000 non-local

             Grid Information
             ----------------
          Grid used for XC integration:  medium    
          Radial quadrature: Mura-Knowles        
          Angular quadrature: Lebedev. 
          Tag              B.-S. Rad. Rad. Pts. Rad. Cut. Ang. Pts.
          ---              ---------- --------- --------- ---------
          C                   0.70       49          13.0       434
          O                   0.60       49          14.0       434
          H                   0.35       45          13.0       434
          Cl                  1.00       88          13.0       590
          Grid pruning is: on 
          Number of quadrature shells:   374
          Spatial weights used:  Erf1

          Convergence Information
          -----------------------
          Convergence aids based upon iterative change in 
          total energy or number of iterations. 
          Levelshifting, if invoked, occurs when the 
          HOMO/LUMO gap drops below (HL_TOL):  1.00D-02
          DIIS, if invoked, will attempt to extrapolate 
          using up to (NFOCK): 10 stored Fock matrices.

                    Damping(40%)  Levelshifting(0.0)       DIIS
                  --------------- ------------------- ---------------
          dE  on:    start            0.00D+00            start   
          dE off:  200 iters          0.00D+00          200 iters 


      Screening Tolerance Information
      -------------------------------
          Density screening/tol_rho:  1.00D-10
          AO Gaussian exp screening on grid/accAOfunc:  14
          CD Gaussian exp screening on grid/accCDfunc:  20
          XC Gaussian exp screening on grid/accXCfunc:  20
          Schwarz screening/accCoul:  1.00D-08


 Forcing the number of linearly dependent vectors to be  0

      Superposition of Atomic Density Guess
      -------------------------------------

 Sum of atomic energies:        -685.39010098
   Time after variat. SCF:      0.5
   Time prior to 1st pass:      0.5

 Grid_pts file          = /jet/home/hmt47/nwchem_scratch//dft.gridpts.00
 Record size in doubles =  12289        No. of grid_pts per rec  =   3070
 Max. records in memory =      7        Max. recs in file   =  67550051


           Memory utilization after 1st SCF pass: 
           Heap Space remaining (MW):       33.46            33459818
          Stack Space remaining (MW):       67.11            67106060

   convergence    iter        energy       DeltaE   RMS-Dens  Diis-err    time
 ---------------- ----- ----------------- --------- --------- ---------  ------
 d=40,ls=0.0,diis     1   -688.2951660858 -8.88D+02  4.24D-03  1.03D+01     1.9
                                                     4.26D-03  9.51D+00
 d=40,ls=0.0,diis     2   -687.8296471406  4.66D-01  2.52D-02  1.72D+00     7.6
                                                     1.05D-02  1.59D+00
 d=40,ls=0.0,diis     3   -685.3635799261  2.47D+00  1.51D-02  2.47D+00    13.3
                                                     6.31D-03  2.21D+00
 d=40,ls=0.0,diis     4   -687.0956367598 -1.73D+00  6.07D-03  5.20D-01    19.0
                                                     2.81D-03  4.52D-01
 d=40,ls=0.0,diis     5   -687.4510263889 -3.55D-01  2.45D-03  2.12D-01    24.7
                                                     1.91D-03  1.73D-01
 d=40,ls=0.0,diis     6   -687.5935755257 -1.43D-01  1.02D-03  6.69D-02    30.4
                                                     1.63D-03  4.64D-02
  Resetting Diis
 d=40,ls=0.0,diis     7   -687.6387268476 -4.52D-02  4.94D-04  3.61D-02    36.1
                                                     6.37D-04  2.65D-02
 d=40,ls=0.0,diis     8   -687.6504101964 -1.17D-02  1.02D-03  4.13D-02    41.8
                                                     2.11D-03  3.34D-02
 d=40,ls=0.0,diis     9   -687.5136574567  1.37D-01  4.57D-04  3.60D-01    47.4
                                                     1.23D-03  2.91D-01
 d=40,ls=0.0,diis    10   -687.6120573882 -9.84D-02  2.61D-04  1.21D-01    53.1
                                                     1.20D-03  1.10D-01
 d=40,ls=0.0,diis    11   -687.6092691147  2.79D-03  1.32D-04  1.42D-01    58.8
                                                     3.85D-04  1.15D-01
 d=40,ls=0.0,diis    12   -687.6117845087 -2.52D-03  5.29D-05  1.40D-01    64.5
                                                     1.54D-04  1.14D-01
 d=40,ls=0.0,diis    13   -687.6123636265 -5.79D-04  2.08D-05  1.40D-01    70.2
                                                     5.84D-05  1.14D-01
 d=40,ls=0.0,diis    14   -687.6130509648 -6.87D-04  4.44D-05  1.39D-01    75.9
                                                     4.55D-05  1.14D-01
 d=40,ls=0.0,diis    15   -687.6113762091  1.67D-03  1.80D-05  1.44D-01    81.6
                                                     8.00D-05  1.17D-01
 d=40,ls=0.0,diis    16   -687.6136183031 -2.24D-03  4.14D-05  1.39D-01    87.3
                                                     3.33D-04  1.14D-01
 d=40,ls=0.0,diis    17   -687.6241619859 -1.05D-02  5.11D-05  1.17D-01    93.0
                                                     1.02D-04  9.88D-02
 d=40,ls=0.0,diis    18   -687.6244099287 -2.48D-04  5.53D-04  1.18D-01    98.7
                                                     2.17D-03  1.00D-01
 d=40,ls=0.0,diis    19   -687.6509054856 -2.65D-02  2.14D-04  5.10D-02   104.4
                                                     8.38D-04  3.81D-02
 d=40,ls=0.0,diis    20   -687.6599108062 -9.01D-03  1.56D-04  3.66D-02   110.2
                                                     5.46D-04  2.94D-02
 d=40,ls=0.0,diis    21   -687.6718682567 -1.20D-02  8.02D-05  1.10D-02   115.9
                                                     3.01D-04  9.31D-03
 d=40,ls=0.0,diis    22   -687.6685104988  3.36D-03  1.40D-04  1.94D-02   121.6
                                                     1.14D-03  1.71D-02
 d=40,ls=0.0,diis    23   -687.6749158921 -6.41D-03  1.24D-05  4.97D-03   127.3
                                                     2.30D-04  4.43D-03
 d=40,ls=0.0,diis    24   -687.6765866920 -1.67D-03  8.85D-06  2.07D-03   133.1
                                                     1.79D-04  1.92D-03
 d=40,ls=0.0,diis    25   -687.6775264964 -9.40D-04  1.23D-05  2.84D-04   138.8
                                                     1.34D-04  2.59D-04
 d=40,ls=0.0,diis    26   -687.6776556562 -1.29D-04  6.27D-06  9.92D-05   144.5
                                                     4.46D-05  8.85D-05
 d=40,ls=0.0,diis    27   -687.6775866493  6.90D-05  6.80D-06  2.99D-04   150.2
                                                     1.64D-05  2.81D-04
 d=40,ls=0.0,diis    28   -687.6776313674 -4.47D-05  7.44D-06  2.22D-04   155.9
                                                     1.97D-05  2.10D-04
 d=40,ls=0.0,diis    29   -687.6776736374 -4.23D-05  6.83D-06  1.39D-04   161.6
                                                     4.54D-05  1.33D-04
 d=40,ls=0.0,diis    30   -687.6777322233 -5.86D-05  2.30D-06  1.48D-05   167.2
                                                     1.83D-05  1.42D-05
 d=40,ls=0.0,diis    31   -687.6777397930 -7.57D-06  8.20D-07  5.49D-07   172.8
                                                     4.18D-06  5.25D-07
 d=40,ls=0.0,diis    32   -687.6777404946 -7.02D-07  6.94D-07  1.31D-08   178.5
                                                     9.25D-07  1.09D-08


         Total DFT energy =     -687.677740494632
      One electron energy =    -1342.443292865471
           Coulomb energy =      511.308256641417
    Exchange-Corr. energy =      -56.406377035976
 Nuclear repulsion energy =      199.863672765398

 Numeric. integr. density =       47.000000302315

     Total iterative time =    178.1s



                    DFT Final Alpha Molecular Orbital Analysis
                    ------------------------------------------

 Vector    1  Occ=1.000000D+00  E=-1.007396D+02
              MO Center=  3.0D-01, -1.5D+00,  2.4D+00, r^2= 3.1D-03
   Bfn.  Coefficient  Atom+Function         Bfn.  Coefficient  Atom+Function  
  ----- ------------  ---------------      ----- ------------  ---------------
   271      1.001939  7 Cl s                 59     -0.042273  2 C  s          
   275     -0.039042  7 Cl s          

 Vector    2  Occ=1.000000D+00  E=-1.881324D+01
              MO Center= -2.3D-01,  1.1D+00, -5.0D-01, r^2= 1.5D-02
   Bfn.  Coefficient  Atom+Function         Bfn.  Coefficient  Atom+Function  
  ----- ------------  ---------------      ----- ------------  ---------------
   111      0.982806  3 O  s                 59     -0.084287  2 C  s          
   113      0.068054  3 O  s                 54      0.062857  1 C  fyzz       
   169      0.059052  4 O  s                114     -0.051535  3 O  s          
    53      0.051123  1 C  fyyz              13     -0.047927  1 C  py         
    14      0.040337  1 C  pz                10      0.032001  1 C  py         

 Vector    3  Occ=1.000000D+00  E=-1.880459D+01
              MO Center=  9.7D-02, -1.1D+00, -6.6D-01, r^2= 1.5D-02
   Bfn.  Coefficient  Atom+Function         Bfn.  Coefficient  Atom+Function  
  ----- ------------  ---------------      ----- ------------  ---------------
   166      0.982112  4 O  s                 59      0.095628  2 C  s          
   168      0.067744  4 O  s                223     -0.057877  5 H  s          
   248     -0.057837  6 H  s                  4     -0.052775  1 C  s          
    53      0.041260  1 C  fyyz              14      0.040895  1 C  pz         
    13      0.036494  1 C  py                69      0.034361  2 C  pz         

 Vector    4  Occ=1.000000D+00  E=-1.005188D+01
              MO Center= -3.4D-02, -2.6D-02, -6.7D-02, r^2= 2.8D-02
   Bfn.  Coefficient  Atom+Function         Bfn.  Coefficient  Atom+Function  
  ----- ------------  ---------------      ----- ------------  ---------------
     1      1.012213  1 C  s                  2      0.084526  1 C  s          
   169     -0.076039  4 O  s                  3      0.067821  1 C  s          
     4     -0.056307  1 C  s                 27      0.042414  1 C  dyy        
    69     -0.038086  2 C  pz                33     -0.036981  1 C  dyy        
   178     -0.036391  4 O  py               114     -0.035851  3 O  s          

 Vector    5  Occ=1.000000D+00  E=-1.001897D+01
              MO Center=  2.7D-02,  3.9D-02,  1.5D+00, r^2= 2.8D-02
   Bfn.  Coefficient  Atom+Function         Bfn.  Coefficient  Atom+Function  
  ----- ------------  ---------------      ----- ------------  ---------------
    56      1.013674  2 C  s                 59     -0.095187  2 C  s          
    57      0.087601  2 C  s                 58      0.066862  2 C  s          
    68     -0.038915  2 C  py                79      0.030144  2 C  dxx        
    65      0.029939  2 C  py               222     -0.028386  5 H  s          
   247     -0.028336  6 H  s          

 Vector    6  Occ=1.000000D+00  E=-9.221447D+00
              MO Center=  3.0D-01, -1.5D+00,  2.4D+00, r^2= 6.6D-02
   Bfn.  Coefficient  Atom+Function         Bfn.  Coefficient  Atom+Function  
  ----- ------------  ---------------      ----- ------------  ---------------
   272      0.900571  7 Cl s                274      0.112345  7 Cl s          
    59      0.059964  2 C  s                273     -0.029390  7 Cl s          

 Vector    7  Occ=1.000000D+00  E=-7.047623D+00
              MO Center=  3.0D-01, -1.5D+00,  2.4D+00, r^2= 5.8D-02
   Bfn.  Coefficient  Atom+Function         Bfn.  Coefficient  Atom+Function  
  ----- ------------  ---------------      ----- ------------  ---------------
   278      0.807826  7 Cl py               279     -0.616665  7 Cl pz         
    59     -0.147188  2 C  s                277     -0.145752  7 Cl px         
   281      0.097310  7 Cl py               282     -0.071323  7 Cl pz         
   287      0.052639  7 Cl py               223      0.041091  5 H  s          
   248      0.041083  6 H  s                311     -0.035814  7 Cl fxxy       

 Vector    8  Occ=1.000000D+00  E=-7.037736D+00
              MO Center=  3.0D-01, -1.5D+00,  2.4D+00, r^2= 5.8D-02
   Bfn.  Coefficient  Atom+Function         Bfn.  Coefficient  Atom+Function  
  ----- ------------  ---------------      ----- ------------  ---------------
   279      0.800455  7 Cl pz               278      0.604470  7 Cl py         
   282      0.058863  7 Cl pz               277     -0.053294  7 Cl px         
   281      0.047411  7 Cl py               285      0.036058  7 Cl pz         
     4      0.034585  1 C  s                284      0.026653  7 Cl py         

 Vector    9  Occ=1.000000D+00  E=-7.035453D+00
              MO Center=  3.0D-01, -1.5D+00,  2.4D+00, r^2= 5.8D-02
   Bfn.  Coefficient  Atom+Function         Bfn.  Coefficient  Atom+Function  
  ----- ------------  ---------------      ----- ------------  ---------------
   277      0.990645  7 Cl px               278      0.145317  7 Cl py         
   280      0.070060  7 Cl px               283      0.045732  7 Cl px         
   279     -0.043774  7 Cl pz               310     -0.028392  7 Cl fxxx       
   313     -0.027879  7 Cl fxyy             315     -0.027994  7 Cl fxzz       

 Vector   10  Occ=1.000000D+00  E=-1.033489D+00
              MO Center= -5.9D-02,  4.4D-02, -3.9D-01, r^2= 1.1D+00
   Bfn.  Coefficient  Atom+Function         Bfn.  Coefficient  Atom+Function  
  ----- ------------  ---------------      ----- ------------  ---------------
   112      0.297082  3 O  s                167      0.281745  4 O  s          
     2      0.273443  1 C  s                114      0.169172  3 O  s          
   169      0.132863  4 O  s                115      0.088603  3 O  s          
   170      0.088894  4 O  s                113      0.083921  3 O  s          
     3      0.079642  1 C  s                168      0.079841  4 O  s          

 Vector   11  Occ=1.000000D+00  E=-9.592474D-01
              MO Center= -5.0D-02, -2.9D-02, -4.2D-01, r^2= 1.3D+00
   Bfn.  Coefficient  Atom+Function         Bfn.  Coefficient  Atom+Function  
  ----- ------------  ---------------      ----- ------------  ---------------
   167     -0.344286  4 O  s                112      0.331395  3 O  s          
   169     -0.293383  4 O  s                114      0.291505  3 O  s          
     7      0.161854  1 C  py               168     -0.095270  4 O  s          
   113      0.091296  3 O  s                 59      0.078175  2 C  s          
   172     -0.056787  4 O  py               120     -0.056024  3 O  py         

 Vector   12  Occ=1.000000D+00  E=-8.127076D-01
              MO Center=  2.0D-01, -9.6D-01,  2.0D+00, r^2= 1.4D+00
   Bfn.  Coefficient  Atom+Function         Bfn.  Coefficient  Atom+Function  
  ----- ------------  ---------------      ----- ------------  ---------------
   273      0.495594  7 Cl s                275      0.324509  7 Cl s          
    57      0.236537  2 C  s                 59      0.214469  2 C  s          
   222      0.058086  5 H  s                247      0.058084  6 H  s          
   276      0.053912  7 Cl s                 58      0.051555  2 C  s          
   167     -0.049084  4 O  s                274      0.049122  7 Cl s          

 Vector   13  Occ=1.000000D+00  E=-6.885776D-01
              MO Center=  7.5D-02, -3.2D-01,  1.4D+00, r^2= 2.5D+00
   Bfn.  Coefficient  Atom+Function         Bfn.  Coefficient  Atom+Function  
  ----- ------------  ---------------      ----- ------------  ---------------
   273      0.357497  7 Cl s                 57     -0.315169  2 C  s          
   275      0.276554  7 Cl s                 59     -0.225297  2 C  s          
   112      0.115070  3 O  s                  8     -0.113825  1 C  pz         
     2     -0.112370  1 C  s                 11     -0.091888  1 C  pz         
   222     -0.085589  5 H  s                247     -0.085610  6 H  s          

 Vector   14  Occ=1.000000D+00  E=-5.289454D-01
              MO Center= -2.6D-03, -7.7D-03,  6.9D-01, r^2= 2.9D+00
   Bfn.  Coefficient  Atom+Function         Bfn.  Coefficient  Atom+Function  
  ----- ------------  ---------------      ----- ------------  ---------------
     2      0.259057  1 C  s                 63     -0.168459  2 C  pz         
   167     -0.160290  4 O  s                112     -0.146898  3 O  s          
   114     -0.140679  3 O  s                 66     -0.133849  2 C  pz         
     4      0.125718  1 C  s                 57     -0.124956  2 C  s          
   169     -0.115391  4 O  s                 59     -0.105073  2 C  s          

 Vector   15  Occ=1.000000D+00  E=-4.744147D-01
              MO Center= -3.8D-03,  1.1D-01,  1.0D+00, r^2= 2.1D+00
   Bfn.  Coefficient  Atom+Function         Bfn.  Coefficient  Atom+Function  
  ----- ------------  ---------------      ----- ------------  ---------------
    61      0.224234  2 C  px                64      0.176723  2 C  px         
   222      0.161101  5 H  s                247     -0.161058  6 H  s          
     6      0.146138  1 C  px                67      0.128175  2 C  px         
     9      0.122400  1 C  px               221      0.111226  5 H  s          
   246     -0.111209  6 H  s                116      0.097904  3 O  px         

 Vector   16  Occ=1.000000D+00  E=-4.639028D-01
              MO Center= -7.4D-02,  2.3D-01, -1.0D-01, r^2= 2.4D+00
   Bfn.  Coefficient  Atom+Function         Bfn.  Coefficient  Atom+Function  
  ----- ------------  ---------------      ----- ------------  ---------------
   117      0.210633  3 O  py               120      0.196191  3 O  py         
     8      0.184864  1 C  pz               114      0.175948  3 O  s          
   112      0.163420  3 O  s                172     -0.154246  4 O  py         
    11      0.150084  1 C  pz               175     -0.146172  4 O  py         
     2     -0.120122  1 C  s                 63     -0.113602  2 C  pz         

 Vector   17  Occ=1.000000D+00  E=-4.528114D-01
              MO Center=  2.3D-02, -4.2D-01, -7.1D-02, r^2= 3.2D+00
   Bfn.  Coefficient  Atom+Function         Bfn.  Coefficient  Atom+Function  
  ----- ------------  ---------------      ----- ------------  ---------------
     7      0.171791  1 C  py               167      0.172580  4 O  s          
   172     -0.167403  4 O  py               175     -0.157508  4 O  py         
    59     -0.142766  2 C  s                118      0.143311  3 O  pz         
   121      0.143172  3 O  pz               275      0.141914  7 Cl s          
   173     -0.139404  4 O  pz               176     -0.135983  4 O  pz         

 Vector   18  Occ=1.000000D+00  E=-4.092848D-01
              MO Center=  1.3D-01, -7.0D-01,  1.5D+00, r^2= 3.5D+00
   Bfn.  Coefficient  Atom+Function         Bfn.  Coefficient  Atom+Function  
  ----- ------------  ---------------      ----- ------------  ---------------
    62      0.188017  2 C  py                65      0.187042  2 C  py         
   281     -0.172566  7 Cl py                59     -0.165168  2 C  s          
   282      0.165240  7 Cl pz               284     -0.159342  7 Cl py         
   285      0.141487  7 Cl pz               117      0.114864  3 O  py         
   120      0.112061  3 O  py               275      0.111816  7 Cl s          

 Vector   19  Occ=1.000000D+00  E=-3.998526D-01
              MO Center= -2.0D-02, -1.7D-02,  2.8D-01, r^2= 2.7D+00
   Bfn.  Coefficient  Atom+Function         Bfn.  Coefficient  Atom+Function  
  ----- ------------  ---------------      ----- ------------  ---------------
   171      0.182371  4 O  px                 6      0.179524  1 C  px         
   174      0.180086  4 O  px               116      0.176256  3 O  px         
   119      0.174613  3 O  px                 9      0.151599  1 C  px         
    61     -0.144980  2 C  px                64     -0.129469  2 C  px         
   177      0.111444  4 O  px               222     -0.110065  5 H  s          

 Vector   20  Occ=1.000000D+00  E=-3.217622D-01
              MO Center=  9.8D-02, -5.5D-01,  1.2D+00, r^2= 4.4D+00
   Bfn.  Coefficient  Atom+Function         Bfn.  Coefficient  Atom+Function  
  ----- ------------  ---------------      ----- ------------  ---------------
   282      0.224118  7 Cl pz               121      0.222876  3 O  pz         
   118      0.220793  3 O  pz               281      0.219785  7 Cl py         
   284      0.175136  7 Cl py               285      0.157269  7 Cl pz         
   124      0.150278  3 O  pz               288      0.133112  7 Cl pz         
    59     -0.123825  2 C  s                287      0.118659  7 Cl py         

 Vector   21  Occ=1.000000D+00  E=-3.054522D-01
              MO Center=  5.9D-02, -5.2D-01,  4.1D-01, r^2= 4.0D+00
   Bfn.  Coefficient  Atom+Function         Bfn.  Coefficient  Atom+Function  
  ----- ------------  ---------------      ----- ------------  ---------------
   174      0.236951  4 O  px               280      0.238030  7 Cl px         
   171      0.234243  4 O  px               119     -0.215136  3 O  px         
   116     -0.212326  3 O  px               283      0.171791  7 Cl px         
   286      0.157605  7 Cl px               177      0.144090  4 O  px         
   122     -0.133239  3 O  px                25     -0.063742  1 C  dxy        

 Vector   22  Occ=1.000000D+00  E=-2.952264D-01
              MO Center=  1.4D-01, -7.8D-01,  1.4D+00, r^2= 4.2D+00
   Bfn.  Coefficient  Atom+Function         Bfn.  Coefficient  Atom+Function  
  ----- ------------  ---------------      ----- ------------  ---------------
   280      0.335236  7 Cl px               283      0.246238  7 Cl px         
   286      0.207594  7 Cl px               119      0.188980  3 O  px         
   116      0.186638  3 O  px               174     -0.140868  4 O  px         
   171     -0.138566  4 O  px               122      0.117724  3 O  px         
   177     -0.084000  4 O  px                61     -0.076644  2 C  px         

 Vector   23  Occ=1.000000D+00  E=-2.940868D-01
              MO Center=  6.5D-02, -3.8D-01,  9.9D-01, r^2= 4.4D+00
   Bfn.  Coefficient  Atom+Function         Bfn.  Coefficient  Atom+Function  
  ----- ------------  ---------------      ----- ------------  ---------------
   282      0.262467  7 Cl pz               121     -0.237793  3 O  pz         
   118     -0.235803  3 O  pz               285      0.206449  7 Cl pz         
   124     -0.159509  3 O  pz               288      0.149544  7 Cl pz         
    63     -0.120526  2 C  pz               281      0.114844  7 Cl py         
    59     -0.109840  2 C  s                 66     -0.109889  2 C  pz         

 Vector   24  Occ=1.000000D+00  E=-2.928203D-01
              MO Center=  2.5D-02, -5.5D-01, -4.4D-01, r^2= 1.9D+00
   Bfn.  Coefficient  Atom+Function         Bfn.  Coefficient  Atom+Function  
  ----- ------------  ---------------      ----- ------------  ---------------
   176      0.289542  4 O  pz               173      0.283800  4 O  pz         
    59     -0.203769  2 C  s                175     -0.194884  4 O  py         
   172     -0.190662  4 O  py               179      0.181770  4 O  pz         
   223      0.171368  5 H  s                248      0.171163  6 H  s          
   120     -0.160376  3 O  py               117     -0.156684  3 O  py         

 Vector   25  Occ=0.000000D+00  E=-7.279024D-02
              MO Center=  1.8D-01, -8.4D-01,  2.0D+00, r^2= 3.5D+00
   Bfn.  Coefficient  Atom+Function         Bfn.  Coefficient  Atom+Function  
  ----- ------------  ---------------      ----- ------------  ---------------
    59      1.026422  2 C  s                223     -0.284412  5 H  s          
   248     -0.284295  6 H  s                287     -0.279725  7 Cl py         
    65     -0.278223  2 C  py               281     -0.273212  7 Cl py         
   276     -0.268138  7 Cl s                 62     -0.239643  2 C  py         
   290     -0.229528  7 Cl py                 4     -0.217390  1 C  s          

 Vector   26  Occ=0.000000D+00  E=-6.275185D-02
              MO Center= -3.8D-02,  3.3D-02,  5.9D-02, r^2= 2.5D+00
   Bfn.  Coefficient  Atom+Function         Bfn.  Coefficient  Atom+Function  
  ----- ------------  ---------------      ----- ------------  ---------------
     9      0.337312  1 C  px                 6      0.313201  1 C  px         
    12      0.302763  1 C  px               224     -0.286966  5 H  s          
   249      0.287765  6 H  s                177     -0.216859  4 O  px         
   174     -0.211642  4 O  px               122     -0.206513  3 O  px         
   171     -0.202044  4 O  px               119     -0.186566  3 O  px         

 Vector   27  Occ=0.000000D+00  E=-3.099376D-02
              MO Center=  1.3D-02,  3.0D-01,  2.0D+00, r^2= 1.1D+01
   Bfn.  Coefficient  Atom+Function         Bfn.  Coefficient  Atom+Function  
  ----- ------------  ---------------      ----- ------------  ---------------
     5      1.204338  1 C  s                224     -0.790530  5 H  s          
   249     -0.789281  6 H  s                  4      0.563119  1 C  s          
   276      0.534379  7 Cl s                 71      0.473300  2 C  py         
    59     -0.442450  2 C  s                115     -0.395942  3 O  s          
    60     -0.336900  2 C  s                 17      0.328917  1 C  pz         

 Vector   28  Occ=0.000000D+00  E= 6.500523D-03
              MO Center= -3.7D-02,  5.9D-01,  1.9D+00, r^2= 1.5D+01
   Bfn.  Coefficient  Atom+Function         Bfn.  Coefficient  Atom+Function  
  ----- ------------  ---------------      ----- ------------  ---------------
   224      2.971331  5 H  s                249     -2.971329  6 H  s          
   223      1.741268  5 H  s                248     -1.740399  6 H  s          
    67     -1.562058  2 C  px                70     -1.371538  2 C  px         
    15      0.381330  1 C  px                86     -0.359307  2 C  dxy        
   289      0.294108  7 Cl px                87     -0.286156  2 C  dxz        

 Vector   29  Occ=0.000000D+00  E= 1.487389D-02
              MO Center= -4.3D-02,  2.1D-01,  4.8D-01, r^2= 1.6D+01
   Bfn.  Coefficient  Atom+Function         Bfn.  Coefficient  Atom+Function  
  ----- ------------  ---------------      ----- ------------  ---------------
    60      9.606138  2 C  s                  5     -8.250492  1 C  s          
    59     -5.552589  2 C  s                 72     -2.930450  2 C  pz         
   223      2.470807  5 H  s                248      2.470561  6 H  s          
    17     -2.362353  1 C  pz                88     -1.722698  2 C  dyy        
    85     -1.566716  2 C  dxx               90     -1.268008  2 C  dzz        

 Vector   30  Occ=0.000000D+00  E= 2.116091D-02
              MO Center=  1.1D-01, -3.6D-01,  2.0D+00, r^2= 1.6D+01
   Bfn.  Coefficient  Atom+Function         Bfn.  Coefficient  Atom+Function  
  ----- ------------  ---------------      ----- ------------  ---------------
    60      4.301749  2 C  s                276     -3.630113  7 Cl s          
    71     -1.865428  2 C  py                59     -1.492422  2 C  s          
   290     -0.840609  7 Cl py                 4      0.810954  1 C  s          
   115      0.760191  3 O  s                 72      0.714321  2 C  pz         
    13     -0.618324  1 C  py                89     -0.586490  2 C  dyz        

 Vector   31  Occ=0.000000D+00  E= 4.014475D-02
              MO Center= -1.5D-02,  1.0D-01,  7.9D-01, r^2= 1.6D+01
   Bfn.  Coefficient  Atom+Function         Bfn.  Coefficient  Atom+Function  
  ----- ------------  ---------------      ----- ------------  ---------------
    59      2.998462  2 C  s                 17     -2.441309  1 C  pz         
   223     -1.971999  5 H  s                248     -1.972185  6 H  s          
     5     -1.653446  1 C  s                 85      1.056965  2 C  dxx        
    72      0.969039  2 C  pz                69      0.944402  2 C  pz         
    88      0.921277  2 C  dyy               90      0.914371  2 C  dzz        

 Vector   32  Occ=0.000000D+00  E= 4.868637D-02
              MO Center=  1.2D-01, -6.7D-01,  1.3D+00, r^2= 1.8D+01
   Bfn.  Coefficient  Atom+Function         Bfn.  Coefficient  Atom+Function  
  ----- ------------  ---------------      ----- ------------  ---------------
     5      4.783325  1 C  s                170     -3.376036  4 O  s          
    59     -3.343906  2 C  s                276      2.249898  7 Cl s          
     4      2.168354  1 C  s                 16     -1.886765  1 C  py         
    72      1.884670  2 C  pz                71      1.824494  2 C  py         
    60     -1.728315  2 C  s                 89      1.123521  2 C  dyz        

 Vector   33  Occ=0.000000D+00  E= 5.319308D-02
              MO Center= -1.1D-02, -1.8D-01, -2.9D-02, r^2= 1.4D+01
   Bfn.  Coefficient  Atom+Function         Bfn.  Coefficient  Atom+Function  
  ----- ------------  ---------------      ----- ------------  ---------------
    15      2.723292  1 C  px                70     -1.712129  2 C  px         
    87      0.731881  2 C  dxz              248      0.565535  6 H  s          
   223     -0.558833  5 H  s                125     -0.462151  3 O  px         
   224     -0.454883  5 H  s                249      0.453739  6 H  s          
    16      0.394914  1 C  py                86     -0.351426  2 C  dxy        

 Vector   34  Occ=0.000000D+00  E= 6.044736D-02
              MO Center=  1.2D-01, -7.1D-01,  1.1D+00, r^2= 1.8D+01
   Bfn.  Coefficient  Atom+Function         Bfn.  Coefficient  Atom+Function  
  ----- ------------  ---------------      ----- ------------  ---------------
    60      3.962564  2 C  s                 71     -2.368838  2 C  py         
    16      2.165585  1 C  py               170      1.970061  4 O  s          
    69      1.769602  2 C  pz                17     -1.739221  1 C  pz         
     5     -1.659628  1 C  s                276     -1.467598  7 Cl s          
   223     -1.195123  5 H  s                248     -1.195429  6 H  s          

 Vector   35  Occ=0.000000D+00  E= 6.741859D-02
              MO Center= -2.1D-02,  5.6D-01,  2.1D+00, r^2= 2.2D+01
   Bfn.  Coefficient  Atom+Function         Bfn.  Coefficient  Atom+Function  
  ----- ------------  ---------------      ----- ------------  ---------------
     5     10.424549  1 C  s                  4      7.427329  1 C  s          
    59     -7.062753  2 C  s                115     -5.613945  3 O  s          
    60      5.372498  2 C  s                224     -3.160496  5 H  s          
   249     -3.160738  6 H  s                170     -2.902416  4 O  s          
    72      2.848780  2 C  pz                90     -1.987717  2 C  dzz        

 Vector   36  Occ=0.000000D+00  E= 6.853352D-02
              MO Center=  2.6D-01, -1.4D+00,  2.2D+00, r^2= 1.4D+01
   Bfn.  Coefficient  Atom+Function         Bfn.  Coefficient  Atom+Function  
  ----- ------------  ---------------      ----- ------------  ---------------
   289      1.793589  7 Cl px               223     -1.268742  5 H  s          
   248      1.266776  6 H  s                 67      1.117461  2 C  px         
    70     -0.700880  2 C  px               286     -0.691733  7 Cl px         
   280     -0.550619  7 Cl px               224     -0.475663  5 H  s          
   249      0.475150  6 H  s                 86      0.362799  2 C  dxy        

 Vector   37  Occ=0.000000D+00  E= 7.900162D-02
              MO Center= -1.0D-01,  1.2D+00,  2.2D+00, r^2= 2.0D+01
   Bfn.  Coefficient  Atom+Function         Bfn.  Coefficient  Atom+Function  
  ----- ------------  ---------------      ----- ------------  ---------------
   223      7.931422  5 H  s                248     -7.940149  6 H  s          
   224      7.415375  5 H  s                249     -7.415434  6 H  s          
    67     -6.490912  2 C  px                70     -5.633531  2 C  px         
    86     -2.161830  2 C  dxy               87     -1.441716  2 C  dxz        
   256     -1.276575  6 H  px               231     -1.068564  5 H  px         

 Vector   38  Occ=0.000000D+00  E= 8.253942D-02
              MO Center=  1.0D-01, -6.4D-01,  9.3D-01, r^2= 1.5D+01
   Bfn.  Coefficient  Atom+Function         Bfn.  Coefficient  Atom+Function  
  ----- ------------  ---------------      ----- ------------  ---------------
     5      7.098109  1 C  s                 60     -6.750588  2 C  s          
   223      3.143038  5 H  s                248      3.111341  6 H  s          
    16      2.996562  1 C  py               115     -3.001411  3 O  s          
    72      2.818290  2 C  pz                71     -2.114653  2 C  py         
    69     -1.994561  2 C  pz               291     -1.906924  7 Cl pz         

 Vector   39  Occ=0.000000D+00  E= 9.669574D-02
              MO Center= -2.1D-03, -2.1D-01,  4.2D-02, r^2= 1.7D+01
   Bfn.  Coefficient  Atom+Function         Bfn.  Coefficient  Atom+Function  
  ----- ------------  ---------------      ----- ------------  ---------------
     5     29.628316  1 C  s                 60    -28.131414  2 C  s          
    59      8.250719  2 C  s                 17      6.309237  1 C  pz         
    72      4.320836  2 C  pz               170     -4.264274  4 O  s          
   115     -3.468317  3 O  s                276      3.447746  7 Cl s          
    90      2.705753  2 C  dzz               88      2.500162  2 C  dyy        

 Vector   40  Occ=0.000000D+00  E= 1.079460D-01
              MO Center=  3.1D-02, -3.0D-01,  4.8D-01, r^2= 1.6D+01
   Bfn.  Coefficient  Atom+Function         Bfn.  Coefficient  Atom+Function  
  ----- ------------  ---------------      ----- ------------  ---------------
     4     15.081921  1 C  s                 59    -15.046363  2 C  s          
   115     -6.749946  3 O  s                170     -5.930712  4 O  s          
   248      5.414925  6 H  s                 35      5.387442  1 C  dzz        
   223      5.414183  5 H  s                 69      4.346674  2 C  pz         
    14      4.018737  1 C  pz                90     -4.005063  2 C  dzz        

 Vector   41  Occ=0.000000D+00  E= 1.131439D-01
              MO Center=  7.1D-02, -3.8D-01,  1.2D+00, r^2= 1.3D+01
   Bfn.  Coefficient  Atom+Function         Bfn.  Coefficient  Atom+Function  
  ----- ------------  ---------------      ----- ------------  ---------------
    70      4.179048  2 C  px               223      2.011964  5 H  s          
   248     -2.016748  6 H  s                 67     -1.890904  2 C  px         
    15     -1.802344  1 C  px               289     -1.546294  7 Cl px         
   224     -1.227237  5 H  s                249      1.225823  6 H  s          
    86     -1.111921  2 C  dxy              256     -1.106888  6 H  px         

 Vector   42  Occ=0.000000D+00  E= 1.279209D-01
              MO Center=  4.4D-02, -1.1D-01,  1.4D+00, r^2= 1.5D+01
   Bfn.  Coefficient  Atom+Function         Bfn.  Coefficient  Atom+Function  
  ----- ------------  ---------------      ----- ------------  ---------------
     5     20.381923  1 C  s                 60    -17.178456  2 C  s          
    59      9.342379  2 C  s                 72      7.899183  2 C  pz         
     4     -3.631179  1 C  s                223     -3.368806  5 H  s          
   248     -3.359137  6 H  s                 88      2.664525  2 C  dyy        
    85      2.495727  2 C  dxx               35     -2.282854  1 C  dzz        

 Vector   43  Occ=0.000000D+00  E= 1.416304D-01
              MO Center= -4.2D-02,  3.5D-02, -6.5D-02, r^2= 1.2D+01
   Bfn.  Coefficient  Atom+Function         Bfn.  Coefficient  Atom+Function  
  ----- ------------  ---------------      ----- ------------  ---------------
    70      2.583246  2 C  px               223     -2.349679  5 H  s          
   248      2.304228  6 H  s                224     -2.085459  5 H  s          
   249      2.081021  6 H  s                 31     -1.891575  1 C  dxy        
    87      1.822609  2 C  dxz              125      1.813306  3 O  px         
    15     -1.357700  1 C  px               180     -1.172279  4 O  px         

 Vector   44  Occ=0.000000D+00  E= 1.460799D-01
              MO Center=  1.5D-01, -9.5D-01,  9.9D-01, r^2= 1.5D+01
   Bfn.  Coefficient  Atom+Function         Bfn.  Coefficient  Atom+Function  
  ----- ------------  ---------------      ----- ------------  ---------------
    59     14.569680  2 C  s                  5     14.004135  1 C  s          
    60    -11.652923  2 C  s                223     -8.952404  5 H  s          
   248     -8.947768  6 H  s                170     -8.391960  4 O  s          
     4      6.218551  1 C  s                276     -6.126037  7 Cl s          
    72      4.817007  2 C  pz                85      3.725111  2 C  dxx        

 Vector   45  Occ=0.000000D+00  E= 1.564476D-01
              MO Center=  7.8D-02, -3.1D-01,  1.5D+00, r^2= 9.4D+00
   Bfn.  Coefficient  Atom+Function         Bfn.  Coefficient  Atom+Function  
  ----- ------------  ---------------      ----- ------------  ---------------
    87      4.908346  2 C  dxz               86     -2.880697  2 C  dxy        
    32      2.031556  1 C  dxz               12      2.017715  1 C  px         
   232      1.923862  5 H  py               248      1.834638  6 H  s          
   223     -1.824688  5 H  s                257     -1.789392  6 H  py         
   180      1.661445  4 O  px               233     -1.592680  5 H  pz         

 Vector   46  Occ=0.000000D+00  E= 1.607082D-01
              MO Center=  8.1D-03, -3.0D-01,  1.5D-02, r^2= 1.5D+01
   Bfn.  Coefficient  Atom+Function         Bfn.  Coefficient  Atom+Function  
  ----- ------------  ---------------      ----- ------------  ---------------
     5      7.613974  1 C  s                  4      6.437796  1 C  s          
    60     -5.856074  2 C  s                 59     -5.710099  2 C  s          
   115     -5.412882  3 O  s                 34     -4.669050  1 C  dyz        
   223      3.385044  5 H  s                248      3.367935  6 H  s          
   126      3.099926  3 O  py                17      3.010867  1 C  pz         

 Vector   47  Occ=0.000000D+00  E= 1.639549D-01
              MO Center=  6.5D-02, -2.1D-01,  1.5D+00, r^2= 1.7D+01
   Bfn.  Coefficient  Atom+Function         Bfn.  Coefficient  Atom+Function  
  ----- ------------  ---------------      ----- ------------  ---------------
    59     15.991825  2 C  s                 60    -15.194215  2 C  s          
   276     11.913295  7 Cl s                223     -8.839060  5 H  s          
   248     -8.827496  6 H  s                 68      4.346746  2 C  py         
    88      3.900050  2 C  dyy               71      3.634736  2 C  py         
    85      3.546021  2 C  dxx                4     -3.200727  1 C  s          

 Vector   48  Occ=0.000000D+00  E= 1.784222D-01
              MO Center= -6.5D-02,  3.8D-01,  5.7D-01, r^2= 1.6D+01
   Bfn.  Coefficient  Atom+Function         Bfn.  Coefficient  Atom+Function  
  ----- ------------  ---------------      ----- ------------  ---------------
    59      8.450275  2 C  s                  5     -7.060634  1 C  s          
    16     -5.412482  1 C  py                71      4.531434  2 C  py         
    13      4.373983  1 C  py               223     -4.072270  5 H  s          
   248     -4.072842  6 H  s                 88      3.844712  2 C  dyy        
    72     -3.337026  2 C  pz               127     -3.228584  3 O  pz         

 Vector   49  Occ=0.000000D+00  E= 1.859970D-01
              MO Center= -3.7D-02, -7.6D-02, -2.8D-01, r^2= 1.4D+01
   Bfn.  Coefficient  Atom+Function         Bfn.  Coefficient  Atom+Function  
  ----- ------------  ---------------      ----- ------------  ---------------
    15      4.095245  1 C  px               180     -2.601433  4 O  px         
   125     -2.496720  3 O  px                12      1.561769  1 C  px         
    87      1.267958  2 C  dxz              258      0.953565  6 H  pz         
   233     -0.920109  5 H  pz               224     -0.701598  5 H  s          
   249      0.693907  6 H  s                248     -0.664061  6 H  s          

 Vector   50  Occ=0.000000D+00  E= 1.884207D-01
              MO Center= -1.5D-01,  4.3D-01, -1.1D+00, r^2= 1.4D+01
   Bfn.  Coefficient  Atom+Function         Bfn.  Coefficient  Atom+Function  
  ----- ------------  ---------------      ----- ------------  ---------------
     4      6.831711  1 C  s                 17      6.683502  1 C  pz         
     5      5.303753  1 C  s                127     -4.350270  3 O  pz         
   170     -3.990179  4 O  s                 68     -3.360206  2 C  py         
    60     -3.239400  2 C  s                275     -2.940626  7 Cl s          
    34      2.755107  1 C  dyz              182     -2.757901  4 O  pz         

 Vector   51  Occ=0.000000D+00  E= 2.003991D-01
              MO Center=  7.5D-02, -5.5D-01,  6.6D-01, r^2= 1.4D+01
   Bfn.  Coefficient  Atom+Function         Bfn.  Coefficient  Atom+Function  
  ----- ------------  ---------------      ----- ------------  ---------------
     5     15.458993  1 C  s                170    -14.479480  4 O  s          
    59    -12.150157  2 C  s                  4      6.808318  1 C  s          
   223      5.525301  5 H  s                248      5.526122  6 H  s          
   115     -5.019229  3 O  s                 71      4.755926  2 C  py         
    69     -4.326144  2 C  pz                33      4.001423  1 C  dyy        

 Vector   52  Occ=0.000000D+00  E= 2.118435D-01
              MO Center= -4.6D-02,  1.3D-01,  1.7D-01, r^2= 1.4D+01
   Bfn.  Coefficient  Atom+Function         Bfn.  Coefficient  Atom+Function  
  ----- ------------  ---------------      ----- ------------  ---------------
     5     30.426707  1 C  s                 60    -20.940939  2 C  s          
   115    -13.002559  3 O  s                 69    -10.963096  2 C  pz         
    59     10.250919  2 C  s                 14     -9.062427  1 C  pz         
     4     -9.008938  1 C  s                 17      5.455890  1 C  pz         
    72      4.961902  2 C  pz                90      4.435052  2 C  dzz        

 Vector   53  Occ=0.000000D+00  E= 2.274663D-01
              MO Center= -2.1D-02,  1.5D-01,  8.0D-01, r^2= 1.5D+01
   Bfn.  Coefficient  Atom+Function         Bfn.  Coefficient  Atom+Function  
  ----- ------------  ---------------      ----- ------------  ---------------
    60     15.132670  2 C  s                  4     10.371602  1 C  s          
    59     -9.358586  2 C  s                115     -7.253358  3 O  s          
   276     -6.646933  7 Cl s                 16      5.217902  1 C  py         
    90     -4.192994  2 C  dzz              170     -3.840270  4 O  s          
    33      3.580054  1 C  dyy              275      3.585024  7 Cl s          

 Vector   54  Occ=0.000000D+00  E= 2.322862D-01
              MO Center=  1.1D-01, -5.0D-01,  1.5D+00, r^2= 1.1D+01
   Bfn.  Coefficient  Atom+Function         Bfn.  Coefficient  Atom+Function  
  ----- ------------  ---------------      ----- ------------  ---------------
   223      9.913111  5 H  s                248     -9.893990  6 H  s          
    67     -7.949564  2 C  px                70     -6.252684  2 C  px         
   224      3.408608  5 H  s                249     -3.402226  6 H  s          
    86     -3.170374  2 C  dxy               87     -2.944960  2 C  dxz        
    15      2.394135  1 C  px               289      1.359015  7 Cl px         

 Vector   55  Occ=0.000000D+00  E= 2.439800D-01
              MO Center=  4.8D-02, -5.0D-02,  1.7D+00, r^2= 1.3D+01
   Bfn.  Coefficient  Atom+Function         Bfn.  Coefficient  Atom+Function  
  ----- ------------  ---------------      ----- ------------  ---------------
    60     36.378907  2 C  s                  5    -26.374696  1 C  s          
    59     -9.062159  2 C  s                276     -8.224587  7 Cl s          
   170      6.914401  4 O  s                 14      5.312797  1 C  pz         
     4      4.944696  1 C  s                 69      4.816088  2 C  pz         
    17     -3.901735  1 C  pz                72     -3.864197  2 C  pz         

 Vector   56  Occ=0.000000D+00  E= 2.524593D-01
              MO Center= -4.8D-02,  6.9D-01,  1.9D+00, r^2= 1.2D+01
   Bfn.  Coefficient  Atom+Function         Bfn.  Coefficient  Atom+Function  
  ----- ------------  ---------------      ----- ------------  ---------------
   223     19.605387  5 H  s                248    -19.627881  6 H  s          
    67    -17.113257  2 C  px               224      5.530921  5 H  s          
   249     -5.525127  6 H  s                 70     -5.342890  2 C  px         
    86     -4.068161  2 C  dxy              232     -3.340089  5 H  py         
   256     -2.997062  6 H  px               258      2.869006  6 H  pz         

 Vector   57  Occ=0.000000D+00  E= 2.595698D-01
              MO Center=  1.5D-01, -8.6D-01,  1.3D+00, r^2= 1.4D+01
   Bfn.  Coefficient  Atom+Function         Bfn.  Coefficient  Atom+Function  
  ----- ------------  ---------------      ----- ------------  ---------------
   170     10.128342  4 O  s                 59      9.768871  2 C  s          
    69      9.056912  2 C  pz               223     -8.929900  5 H  s          
   248     -8.874099  6 H  s                 14      8.163471  1 C  pz         
    33     -7.338019  1 C  dyy              115      6.195332  3 O  s          
     5      5.520497  1 C  s                 88      5.217001  2 C  dyy        

 Vector   58  Occ=0.000000D+00  E= 2.626661D-01
              MO Center=  3.2D-02, -8.2D-02,  1.2D+00, r^2= 1.2D+01
   Bfn.  Coefficient  Atom+Function         Bfn.  Coefficient  Atom+Function  
  ----- ------------  ---------------      ----- ------------  ---------------
     4     14.914680  1 C  s                  5     14.269359  1 C  s          
   115    -10.674313  3 O  s                 60     -8.608789  2 C  s          
    69      8.603655  2 C  pz                72      4.220353  2 C  pz         
    14      3.830778  1 C  pz               276      3.760483  7 Cl s          
    13      3.216575  1 C  py                90     -3.116769  2 C  dzz        

 Vector   59  Occ=0.000000D+00  E= 2.689091D-01
              MO Center=  4.5D-02, -3.8D-01,  5.6D-01, r^2= 1.0D+01
   Bfn.  Coefficient  Atom+Function         Bfn.  Coefficient  Atom+Function  
  ----- ------------  ---------------      ----- ------------  ---------------
    87      9.251246  2 C  dxz              248      5.408813  6 H  s          
   223     -5.370805  5 H  s                 32      5.032081  1 C  dxz        
    12      3.666827  1 C  px               232      2.535431  5 H  py         
   257     -2.181331  6 H  py                70     -1.862682  2 C  px         
   233     -1.764236  5 H  pz               256      1.659083  6 H  px         

 Vector   60  Occ=0.000000D+00  E= 2.774825D-01
              MO Center=  6.2D-02, -3.9D-01,  9.2D-01, r^2= 1.0D+01
   Bfn.  Coefficient  Atom+Function         Bfn.  Coefficient  Atom+Function  
  ----- ------------  ---------------      ----- ------------  ---------------
   223      9.059521  5 H  s                248      9.042544  6 H  s          
    59     -7.932563  2 C  s                  5     -5.761259  1 C  s          
    69     -5.080570  2 C  pz               170      4.814563  4 O  s          
    85     -4.313858  2 C  dxx              276      3.533874  7 Cl s          
   115     -3.460637  3 O  s                  4     -3.007509  1 C  s          

 Vector   61  Occ=0.000000D+00  E= 2.971806D-01
              MO Center=  6.1D-02, -1.6D-01,  1.7D+00, r^2= 1.1D+01
   Bfn.  Coefficient  Atom+Function         Bfn.  Coefficient  Atom+Function  
  ----- ------------  ---------------      ----- ------------  ---------------
    68      7.849674  2 C  py                 5      7.456559  1 C  s          
     4      6.972365  1 C  s                248     -4.967756  6 H  s          
   223     -4.921522  5 H  s                 14      4.577923  1 C  pz         
   275      4.163497  7 Cl s                287      3.725198  7 Cl py         
   115      3.617382  3 O  s                 60     -3.055265  2 C  s          

 Vector   62  Occ=0.000000D+00  E= 3.033759D-01
              MO Center=  1.4D-01, -7.0D-01,  1.6D+00, r^2= 1.1D+01
   Bfn.  Coefficient  Atom+Function         Bfn.  Coefficient  Atom+Function  
  ----- ------------  ---------------      ----- ------------  ---------------
   223    -11.517555  5 H  s                248     11.505545  6 H  s          
    67     10.606334  2 C  px               256      3.957605  6 H  px         
   231      3.324541  5 H  px               232      2.725612  5 H  py         
    32     -2.644808  1 C  dxz              257     -1.662415  6 H  py         
   289      1.641728  7 Cl px                68      1.560774  2 C  py         

 Vector   63  Occ=0.000000D+00  E= 3.157370D-01
              MO Center= -6.3D-02,  8.3D-02, -3.3D-01, r^2= 1.2D+01
   Bfn.  Coefficient  Atom+Function         Bfn.  Coefficient  Atom+Function  
  ----- ------------  ---------------      ----- ------------  ---------------
    59     51.629213  2 C  s                  4    -31.809176  1 C  s          
   223    -22.461957  5 H  s                248    -22.407833  6 H  s          
    35    -14.596883  1 C  dzz               14    -14.433100  1 C  pz         
   115     14.027902  3 O  s                 85     12.996700  2 C  dxx        
    90     11.577156  2 C  dzz               60    -11.142482  2 C  s          

 Vector   64  Occ=0.000000D+00  E= 3.199577D-01
              MO Center=  5.4D-02, -8.6D-02,  1.7D+00, r^2= 1.0D+01
   Bfn.  Coefficient  Atom+Function         Bfn.  Coefficient  Atom+Function  
  ----- ------------  ---------------      ----- ------------  ---------------
   223     15.062406  5 H  s                248    -15.099088  6 H  s          
    67     -8.525771  2 C  px               256     -6.462684  6 H  px         
   231     -6.178123  5 H  px                70      3.725043  2 C  px         
   232     -2.368129  5 H  py               258      1.880203  6 H  pz         
    86     -1.609991  2 C  dxy               87     -1.613999  2 C  dxz        

 Vector   65  Occ=0.000000D+00  E= 3.367024D-01
              MO Center=  7.7D-03,  1.7D-01,  1.3D+00, r^2= 9.7D+00
   Bfn.  Coefficient  Atom+Function         Bfn.  Coefficient  Atom+Function  
  ----- ------------  ---------------      ----- ------------  ---------------
   248    -14.781450  6 H  s                223     14.061437  5 H  s          
    87     -7.352512  2 C  dxz               67     -5.470768  2 C  px         
    86     -4.363344  2 C  dxy              256     -3.053362  6 H  px         
   231     -2.955567  5 H  px                32     -2.899271  1 C  dxz        
    70     -2.629142  2 C  px                15      2.130251  1 C  px         

 Vector   66  Occ=0.000000D+00  E= 3.386743D-01
              MO Center=  5.8D-02, -4.3D-01,  8.8D-01, r^2= 1.1D+01
   Bfn.  Coefficient  Atom+Function         Bfn.  Coefficient  Atom+Function  
  ----- ------------  ---------------      ----- ------------  ---------------
    59     27.747988  2 C  s                223    -22.892768  5 H  s          
   248    -22.481944  6 H  s                  5    -12.409278  1 C  s          
    68     10.588032  2 C  py                85      7.462130  2 C  dxx        
    88      6.363525  2 C  dyy               69      5.778077  2 C  pz         
   256     -4.915603  6 H  px               231      4.675348  5 H  px         

 Vector   67  Occ=0.000000D+00  E= 3.454258D-01
              MO Center=  1.1D-01, -4.3D-01,  1.8D+00, r^2= 1.1D+01
   Bfn.  Coefficient  Atom+Function         Bfn.  Coefficient  Atom+Function  
  ----- ------------  ---------------      ----- ------------  ---------------
    59     28.015381  2 C  s                223    -12.431174  5 H  s          
   248    -12.347621  6 H  s                  4     10.572671  1 C  s          
   170     -8.873323  4 O  s                115     -8.284614  3 O  s          
    60     -6.969812  2 C  s                 33      6.728751  1 C  dyy        
     5      6.138926  1 C  s                232      5.411218  5 H  py         

 Vector   68  Occ=0.000000D+00  E= 3.588725D-01
              MO Center=  7.5D-02, -5.7D-01,  5.9D-01, r^2= 1.1D+01
   Bfn.  Coefficient  Atom+Function         Bfn.  Coefficient  Atom+Function  
  ----- ------------  ---------------      ----- ------------  ---------------
     4     26.731409  1 C  s                 59    -19.150851  2 C  s          
     5     17.093502  1 C  s                170    -14.716436  4 O  s          
    68      7.831884  2 C  py               275      7.252266  7 Cl s          
    35      7.128092  1 C  dzz               69      6.996577  2 C  pz         
   115     -7.021916  3 O  s                 14      6.689087  1 C  pz         

 Vector   69  Occ=0.000000D+00  E= 3.654319D-01
              MO Center= -9.9D-03,  3.4D-01,  1.6D+00, r^2= 8.6D+00
   Bfn.  Coefficient  Atom+Function         Bfn.  Coefficient  Atom+Function  
  ----- ------------  ---------------      ----- ------------  ---------------
    87      9.919686  2 C  dxz               86     -5.055211  2 C  dxy        
   233     -4.260782  5 H  pz               258      4.222476  6 H  pz         
   232      2.706334  5 H  py               257     -2.586937  6 H  py         
   223     -2.112988  5 H  s                248      2.049466  6 H  s          
    12      2.036830  1 C  px                67      1.747056  2 C  px         

 Vector   70  Occ=0.000000D+00  E= 3.789431D-01
              MO Center=  9.8D-03,  1.2D-02,  1.0D+00, r^2= 9.9D+00
   Bfn.  Coefficient  Atom+Function         Bfn.  Coefficient  Atom+Function  
  ----- ------------  ---------------      ----- ------------  ---------------
   223    -16.110236  5 H  s                248    -16.143149  6 H  s          
    59     14.916366  2 C  s                 85      8.209511  2 C  dxx        
    68      8.097694  2 C  py                90      7.731921  2 C  dzz        
   275      6.259930  7 Cl s                  5     -5.839161  1 C  s          
   232      5.314575  5 H  py               257      5.006260  6 H  py         

 Vector   71  Occ=0.000000D+00  E= 3.847332D-01
              MO Center= -4.7D-02,  3.2D-01,  7.9D-01, r^2= 1.1D+01
   Bfn.  Coefficient  Atom+Function         Bfn.  Coefficient  Atom+Function  
  ----- ------------  ---------------      ----- ------------  ---------------
    59     58.452789  2 C  s                  5     35.224333  1 C  s          
    60    -35.173022  2 C  s                223    -27.937935  5 H  s          
   248    -27.879544  6 H  s                 88     16.698500  2 C  dyy        
    90     15.384138  2 C  dzz              170    -12.299061  4 O  s          
    85     10.658518  2 C  dxx              275     -8.270241  7 Cl s          

 Vector   72  Occ=0.000000D+00  E= 4.006858D-01
              MO Center=  6.4D-02, -4.6D-01,  7.0D-01, r^2= 9.8D+00
   Bfn.  Coefficient  Atom+Function         Bfn.  Coefficient  Atom+Function  
  ----- ------------  ---------------      ----- ------------  ---------------
   223     12.060341  5 H  s                248    -12.067338  6 H  s          
    67     -6.322225  2 C  px                31      6.181535  1 C  dxy        
    86     -4.864042  2 C  dxy              256     -3.384613  6 H  px         
   231     -3.278268  5 H  px               122     -1.781822  3 O  px         
   125     -1.783069  3 O  px               177      1.644173  4 O  px         

 Vector   73  Occ=0.000000D+00  E= 4.127585D-01
              MO Center=  1.7D-02, -1.3D-01,  7.3D-01, r^2= 8.7D+00
   Bfn.  Coefficient  Atom+Function         Bfn.  Coefficient  Atom+Function  
  ----- ------------  ---------------      ----- ------------  ---------------
    59     29.484637  2 C  s                  5     19.400382  1 C  s          
    60    -19.383509  2 C  s                223    -18.920680  5 H  s          
   248    -18.873515  6 H  s                 85     12.841597  2 C  dxx        
     4      8.704657  1 C  s                 89     -8.328955  2 C  dyz        
    68      6.359511  2 C  py                69      6.208660  2 C  pz         

 Vector   74  Occ=0.000000D+00  E= 4.392389D-01
              MO Center= -8.8D-03,  2.6D-01,  1.4D+00, r^2= 9.0D+00
   Bfn.  Coefficient  Atom+Function         Bfn.  Coefficient  Atom+Function  
  ----- ------------  ---------------      ----- ------------  ---------------
   223     14.876022  5 H  s                248     14.818448  6 H  s          
    89     13.742780  2 C  dyz               59    -12.515661  2 C  s          
     4    -12.276314  1 C  s                 85     -9.455231  2 C  dxx        
    13      9.180442  1 C  py               170      6.418467  4 O  s          
   257     -6.136362  6 H  py               232     -5.665524  5 H  py         

 Vector   75  Occ=0.000000D+00  E= 4.454784D-01
              MO Center= -6.4D-03, -8.4D-02,  3.5D-01, r^2= 1.0D+01
   Bfn.  Coefficient  Atom+Function         Bfn.  Coefficient  Atom+Function  
  ----- ------------  ---------------      ----- ------------  ---------------
    59     37.959194  2 C  s                223    -27.855565  5 H  s          
   248    -27.859334  6 H  s                115     22.776558  3 O  s          
     5    -15.889725  1 C  s                  4    -14.414625  1 C  s          
    34     12.292961  1 C  dyz               33    -10.223436  1 C  dyy        
    89     10.121287  2 C  dyz               85      8.785423  2 C  dxx        

 Vector   76  Occ=0.000000D+00  E= 4.671965D-01
              MO Center=  1.5D-01, -7.3D-01,  1.8D+00, r^2= 1.1D+01
   Bfn.  Coefficient  Atom+Function         Bfn.  Coefficient  Atom+Function  
  ----- ------------  ---------------      ----- ------------  ---------------
    59     18.280764  2 C  s                276     14.497916  7 Cl s          
     4    -12.303444  1 C  s                 60    -12.077505  2 C  s          
    90      7.391003  2 C  dzz              275     -7.150864  7 Cl s          
    13     -7.054659  1 C  py                34     -5.231941  1 C  dyz        
    88      5.256802  2 C  dyy                5      4.759862  1 C  s          

 Vector   77  Occ=0.000000D+00  E= 4.727554D-01
              MO Center= -4.2D-02,  1.0D-01,  8.6D-02, r^2= 7.8D+00
   Bfn.  Coefficient  Atom+Function         Bfn.  Coefficient  Atom+Function  
  ----- ------------  ---------------      ----- ------------  ---------------
   223     15.283462  5 H  s                248    -14.958174  6 H  s          
    87    -11.424906  2 C  dxz               12    -10.148792  1 C  px         
    86      7.716162  2 C  dxy               32     -6.797312  1 C  dxz        
    31     -5.479947  1 C  dxy              232     -4.937498  5 H  py         
   256     -4.670366  6 H  px               257      3.699591  6 H  py         

 Vector   78  Occ=0.000000D+00  E= 4.751937D-01
              MO Center=  1.0D-01, -2.8D-01,  3.8D-01, r^2= 9.6D+00
   Bfn.  Coefficient  Atom+Function         Bfn.  Coefficient  Atom+Function  
  ----- ------------  ---------------      ----- ------------  ---------------
    59     46.350582  2 C  s                248    -24.765199  6 H  s          
   223    -22.556339  5 H  s                 60    -20.486933  2 C  s          
     4    -14.420102  1 C  s                170     13.615436  4 O  s          
    85     12.273872  2 C  dxx               68     10.069666  2 C  py         
    34     -9.698394  1 C  dyz               13      9.524572  1 C  py         

 Vector   79  Occ=0.000000D+00  E= 4.758863D-01
              MO Center= -2.4D-02, -4.4D-01,  7.0D-01, r^2= 8.8D+00
   Bfn.  Coefficient  Atom+Function         Bfn.  Coefficient  Atom+Function  
  ----- ------------  ---------------      ----- ------------  ---------------
   223     16.560767  5 H  s                 87    -13.769847  2 C  dxz        
   248    -13.276734  6 H  s                 86    -12.137153  2 C  dxy        
    12     -8.974420  1 C  px                67     -8.095090  2 C  px         
    31      4.714378  1 C  dxy               32     -3.855852  1 C  dxz        
    59     -3.185384  2 C  s                231     -2.670729  5 H  px         

 Vector   80  Occ=0.000000D+00  E= 4.901001D-01
              MO Center=  1.4D-02, -6.6D-03,  1.1D+00, r^2= 1.2D+01
   Bfn.  Coefficient  Atom+Function         Bfn.  Coefficient  Atom+Function  
  ----- ------------  ---------------      ----- ------------  ---------------
    59     18.418368  2 C  s                 34     17.084550  1 C  dyz        
   223    -13.062086  5 H  s                248    -13.070760  6 H  s          
    60    -11.875655  2 C  s                276     11.458793  7 Cl s          
   170    -10.784172  4 O  s                  4      9.537394  1 C  s          
    13      8.681580  1 C  py                89      8.503976  2 C  dyz        

 Vector   81  Occ=0.000000D+00  E= 5.130000D-01
              MO Center=  4.3D-02, -1.1D-01,  1.4D+00, r^2= 1.0D+01
   Bfn.  Coefficient  Atom+Function         Bfn.  Coefficient  Atom+Function  
  ----- ------------  ---------------      ----- ------------  ---------------
     4     46.290451  1 C  s                 69     20.570238  2 C  pz         
   170    -15.378670  4 O  s                 33     14.368631  1 C  dyy        
     5     11.245442  1 C  s                 59    -10.793530  2 C  s          
   115     -9.051315  3 O  s                 90     -8.900936  2 C  dzz        
    34      6.493380  1 C  dyz              223     -6.438746  5 H  s          

 Vector   82  Occ=0.000000D+00  E= 5.321478D-01
              MO Center=  9.4D-02, -3.2D-01,  1.8D+00, r^2= 7.6D+00
   Bfn.  Coefficient  Atom+Function         Bfn.  Coefficient  Atom+Function  
  ----- ------------  ---------------      ----- ------------  ---------------
   223     19.720705  5 H  s                248    -19.763426  6 H  s          
    87      9.125143  2 C  dxz              286     -6.835358  7 Cl px         
    67     -5.809374  2 C  px               231     -5.818947  5 H  px         
   256     -5.783435  6 H  px                86     -5.040358  2 C  dxy        
   258      4.593553  6 H  pz               233     -4.070935  5 H  pz         

 Vector   83  Occ=0.000000D+00  E= 5.542025D-01
              MO Center= -3.6D-02,  2.4D-01,  7.4D-01, r^2= 9.8D+00
   Bfn.  Coefficient  Atom+Function         Bfn.  Coefficient  Atom+Function  
  ----- ------------  ---------------      ----- ------------  ---------------
    69     26.065882  2 C  pz               275    -21.356270  7 Cl s          
    14     20.169743  1 C  pz                59     17.762999  2 C  s          
    88     16.809972  2 C  dyy              223    -16.569453  5 H  s          
   248    -16.381127  6 H  s                287    -15.301030  7 Cl py         
     5    -14.260940  1 C  s                 68    -14.147649  2 C  py         

 Vector   84  Occ=0.000000D+00  E= 5.625326D-01
              MO Center=  8.4D-02, -3.5D-01,  1.5D+00, r^2= 9.5D+00
   Bfn.  Coefficient  Atom+Function         Bfn.  Coefficient  Atom+Function  
  ----- ------------  ---------------      ----- ------------  ---------------
    67     38.275408  2 C  px               248     35.296594  6 H  s          
   223    -35.069163  5 H  s                 86      9.969057  2 C  dxy        
    70      6.605024  2 C  px                87      5.780131  2 C  dxz        
    68      5.588941  2 C  py                64     -5.317239  2 C  px         
   101     -5.034997  2 C  fxxx             104     -4.543003  2 C  fxyy       

 Vector   85  Occ=0.000000D+00  E= 5.661996D-01
              MO Center=  5.8D-02, -1.7D-01,  1.5D+00, r^2= 8.8D+00
   Bfn.  Coefficient  Atom+Function         Bfn.  Coefficient  Atom+Function  
  ----- ------------  ---------------      ----- ------------  ---------------
   223    -43.845888  5 H  s                248    -43.677964  6 H  s          
    59     40.328386  2 C  s                 68     24.305406  2 C  py         
    60     13.616702  2 C  s                 85     12.695232  2 C  dxx        
    69      9.883675  2 C  pz                 5     -9.000020  1 C  s          
   276     -8.821425  7 Cl s                 14      7.983206  1 C  pz         

 Vector   86  Occ=0.000000D+00  E= 5.808890D-01
              MO Center=  2.8D-02, -2.9D-01,  4.8D-01, r^2= 8.9D+00
   Bfn.  Coefficient  Atom+Function         Bfn.  Coefficient  Atom+Function  
  ----- ------------  ---------------      ----- ------------  ---------------
    59     71.050728  2 C  s                  4    -44.941333  1 C  s          
[...]
  ----- ------------  ---------------      ----- ------------  ---------------
    59     34.369929  2 C  s                  4    -14.303769  1 C  s          
    14    -12.675659  1 C  pz               121     11.219290  3 O  pz         
   176      9.850391  4 O  pz               275      9.523354  7 Cl s          
   223     -9.168396  5 H  s                248     -9.156919  6 H  s          
   124      8.514940  3 O  pz               169     -8.160495  4 O  s          

 Vector  322  Occ=0.000000D+00  E= 1.501016D+01
              MO Center= -5.9D-02, -1.5D-02, -5.8D-01, r^2= 2.7D+00
   Bfn.  Coefficient  Atom+Function         Bfn.  Coefficient  Atom+Function  
  ----- ------------  ---------------      ----- ------------  ---------------
    59     25.258956  2 C  s                223    -21.464415  5 H  s          
   248    -21.437292  6 H  s                 34     15.120030  1 C  dyz        
   121    -11.531091  3 O  pz               176      9.640859  4 O  pz         
   124     -8.510805  3 O  pz               175     -7.856223  4 O  py         
    88      7.162993  2 C  dyy               85      6.722398  2 C  dxx        

 Vector  323  Occ=0.000000D+00  E= 1.517802D+01
              MO Center= -9.1D-02,  2.3D-01, -4.8D-01, r^2= 2.6D+00
   Bfn.  Coefficient  Atom+Function         Bfn.  Coefficient  Atom+Function  
  ----- ------------  ---------------      ----- ------------  ---------------
     4     18.446363  1 C  s                123     12.442143  3 O  py         
    53     11.707367  1 C  fyyz             169     11.714029  4 O  s          
   120     10.834558  3 O  py                54      8.631361  1 C  fyzz       
     5      8.351092  1 C  s                 69      7.511370  2 C  pz         
   175     -6.511856  4 O  py               152     -6.264713  3 O  fyyy       

 Vector  324  Occ=0.000000D+00  E= 1.655402D+01
              MO Center=  1.3D-02, -5.3D-01, -6.3D-01, r^2= 1.8D+00
   Bfn.  Coefficient  Atom+Function         Bfn.  Coefficient  Atom+Function  
  ----- ------------  ---------------      ----- ------------  ---------------
     4     16.042517  1 C  s                169    -15.744447  4 O  s          
   167    -10.794688  4 O  s                170     -7.207248  4 O  s          
   112     -7.151518  3 O  s                  5      6.518210  1 C  s          
   178     -6.248815  4 O  py                53     -5.051425  1 C  fyyz       
   115     -4.951700  3 O  s                 33      4.747243  1 C  dyy        

 Vector  325  Occ=0.000000D+00  E= 1.664684D+01
              MO Center= -1.4D-01,  5.7D-01, -5.8D-01, r^2= 1.7D+00
   Bfn.  Coefficient  Atom+Function         Bfn.  Coefficient  Atom+Function  
  ----- ------------  ---------------      ----- ------------  ---------------
   114     14.349055  3 O  s                169    -10.012315  4 O  s          
   112      9.262392  3 O  s                123     -5.325273  3 O  py         
   167     -5.034979  4 O  s                 13     -4.825916  1 C  py         
   120     -3.963311  3 O  py                10     -3.928717  1 C  py         
   139     -3.922222  3 O  dzz              134     -3.890250  3 O  dxx        

 Vector  326  Occ=0.000000D+00  E= 1.856088D+01
              MO Center=  3.0D-02, -5.9D-01, -4.4D-01, r^2= 2.3D+00
   Bfn.  Coefficient  Atom+Function         Bfn.  Coefficient  Atom+Function  
  ----- ------------  ---------------      ----- ------------  ---------------
    59     37.856200  2 C  s                  4    -23.973442  1 C  s          
    13     19.679291  1 C  py               178     14.310083  4 O  py         
   223    -13.705698  5 H  s                248    -13.709688  6 H  s          
   179     12.926750  4 O  pz               169     12.379524  4 O  s          
   175     12.088590  4 O  py               123     10.040121  3 O  py         

 Vector  327  Occ=0.000000D+00  E= 1.924206D+01
              MO Center= -1.3D-01,  5.5D-01, -3.0D-01, r^2= 2.9D+00
   Bfn.  Coefficient  Atom+Function         Bfn.  Coefficient  Atom+Function  
  ----- ------------  ---------------      ----- ------------  ---------------
     4     30.063803  1 C  s                 59     22.109339  2 C  s          
    53    -17.819386  1 C  fyyz              14    -15.842259  1 C  pz         
    33     14.826357  1 C  dyy               54    -14.331397  1 C  fyzz       
    13     12.927704  1 C  py               120     10.175914  3 O  py         
   222    -10.208782  5 H  s                247    -10.209937  6 H  s          

 Vector  328  Occ=0.000000D+00  E= 2.790517D+01
              MO Center= -3.3D-02, -1.4D-02,  1.4D-03, r^2= 1.6D+00
   Bfn.  Coefficient  Atom+Function         Bfn.  Coefficient  Atom+Function  
  ----- ------------  ---------------      ----- ------------  ---------------
     2     30.007347  1 C  s                169    -25.531008  4 O  s          
     1     14.800374  1 C  s                 53    -14.024556  1 C  fyyz       
    59     12.735112  2 C  s                114    -11.679320  3 O  s          
   178    -11.147828  4 O  py                27     10.863324  1 C  dyy        
    33     -9.756338  1 C  dyy               69     -8.150133  2 C  pz         

 Vector  329  Occ=0.000000D+00  E= 3.036353D+01
              MO Center=  1.8D-02,  7.6D-02,  1.4D+00, r^2= 1.2D+00
   Bfn.  Coefficient  Atom+Function         Bfn.  Coefficient  Atom+Function  
  ----- ------------  ---------------      ----- ------------  ---------------
    57     31.697013  2 C  s                 56     15.608164  2 C  s          
    59    -15.493225  2 C  s                 68    -12.137560  2 C  py         
    33     -8.157612  1 C  dyy               65      7.812515  2 C  py         
   222     -7.476579  5 H  s                247     -7.460906  6 H  s          
    88      6.938551  2 C  dyy                2      6.360229  1 C  s          


   alpha - beta orbital overlaps 
   ----------------------------- 


   alpha      1      2      3      4      5      6      7      8      9     10
    beta      1      2      3      4      5      6      7      8      9     10
 overlap   1.000  1.000  1.000  1.000  1.000  1.000  0.998  0.998  1.000  1.000


   alpha     11     12     13     14     15     16     17     18     19     20
    beta     11     12     13     14     15     16     17     18     19     20
 overlap   1.000  1.000  0.999  0.999  1.000  0.994  0.984  0.992  1.000  0.923


   alpha     21     22     23     24     25     26     27     28     29     30
    beta     21     22     24     23     25     26     27     28     29     30
 overlap   0.938  0.938  0.860  0.932  0.999  1.000  1.000  1.000  0.997  1.000


   alpha     31     32     33     34     35     36     37     38     39     40
    beta     31     32     33     34     35     36     37     38     39     40
 overlap   0.993  0.996  1.000  0.997  1.000  1.000  0.999  0.997  0.996  0.997


   alpha     41     42     43     44     45     46     47     48     49     50
    beta     41     42     43     44     45     46     47     48     49     50
 overlap   1.000  0.995  1.000  0.998  1.000  0.943  0.947  0.996  1.000  0.995


   alpha     51     52     53     54     55     56     57     58     59     60
    beta     51     52     53     54     55     56     57     58     59     60
 overlap   0.999  0.998  0.997  1.000  0.999  1.000  0.998  0.985  0.999  0.985


   alpha     61     62     63     64     65     66     67     68     69     70
    beta     61     62     63     64     65     66     67     68     69     70
 overlap   0.995  1.000  0.999  0.999  0.999  0.999  0.997  0.997  1.000  0.997


   alpha     71     72     73     74     75     76     77     78     79     80
    beta     71     72     73     74     75     76     77     78     79     80
 overlap   0.999  1.000  0.996  0.996  0.996  0.995  0.987  0.793  0.792  0.991


   alpha     81     82     83     84     85     86     87     88     89     90
    beta     81     82     83     84     85     86     87     88     89     90
 overlap   0.998  1.000  0.997  1.000  0.999  0.998  0.998  1.000  0.999  1.000


   alpha     91     92     93     94     95     96     97     98     99    100
    beta     91     92     93     94     97     96     95     98     99    100
 overlap   0.995  0.999  0.983  0.978  0.724  0.999  0.723  0.993  0.993  0.998


   alpha    101    102    103    104    105    106    107    108    109    110
    beta    101    102    103    104    105    106    107    108    109    110
 overlap   0.998  0.999  1.000  0.999  0.993  0.993  0.998  0.998  0.999  1.000


   alpha    111    112    113    114    115    116    117    118    119    120
    beta    111    112    113    114    115    116    117    118    119    120
 overlap   0.999  0.998  0.997  1.000  0.998  0.998  1.000  0.998  1.000  0.995


   alpha    121    122    123    124    125    126    127    128    129    130
    beta    121    122    123    124    125    126    127    128    129    131
 overlap   0.995  1.000  0.999  0.996  1.000  0.994  1.000  1.000  0.995  0.995


   alpha    131    132    133    134    135    136    137    138    139    140
    beta    130    132    133    134    135    136    137    138    139    140
 overlap   0.998  0.999  0.996  0.998  0.998  1.000  0.999  0.999  1.000  0.998


   alpha    141    142    143    144    145    146    147    148    149    150
    beta    141    142    143    144    145    146    147    148    149    150
 overlap   0.999  0.999  1.000  0.989  0.989  1.000  0.999  0.999  1.000  0.999


   alpha    151    152    153    154    155    156    157    158    159    160
    beta    151    152    153    154    155    156    157    158    159    160
 overlap   0.999  0.997  1.000  0.998  0.998  0.999  0.998  0.999  1.000  0.998


   alpha    161    162    163    164    165    166    167    168    169    170
    beta    161    162    163    164    166    165    168    167    169    170
 overlap   0.997  0.998  0.998  1.000  0.993  0.994  0.796  0.801  0.991  0.999


   alpha    171    172    173    174    175    176    177    178    179    180
    beta    171    172    173    174    175    176    177    178    179    180
 overlap   0.994  0.995  0.984  0.998  0.984  0.998  0.999  0.995  0.989  0.999


   alpha    181    182    183    184    185    186    187    188    189    190
    beta    181    182    183    185    184    186    187    188    189    190
 overlap   0.992  0.999  1.000  0.973  0.994  0.976  0.996  0.998  1.000  0.999


   alpha    191    192    193    194    195    196    197    198    199    200
    beta    191    192    193    194    195    196    197    198    199    200
 overlap   0.999  1.000  0.990  0.990  1.000  0.998  0.999  0.998  0.997  0.998


   alpha    201    202    203    204    205    206    207    208    209    210
    beta    201    202    203    204    205    206    207    208    209    211
 overlap   0.999  0.999  0.999  0.999  0.999  0.999  0.999  0.998  1.000  0.998


   alpha    211    212    213    214    215    216    217    218    219    220
    beta    210    212    213    214    215    216    217    218    220    219
 overlap   1.000  0.999  1.000  0.999  1.000  0.999  0.862  0.865  0.991  0.999


   alpha    221    222    223    224    225    226    227    228    229    230
    beta    221    222    223    224    225    226    227    228    229    230
 overlap   0.993  0.999  1.000  0.998  0.998  1.000  0.999  0.998  0.999  0.999


   alpha    231    232    233    234    235    236    237    238    239    240
    beta    231    232    233    234    235    236    237    238    239    240
 overlap   1.000  0.999  1.000  0.999  1.000  1.000  1.000  0.999  0.997  0.998


   alpha    241    242    243    244    245    246    247    248    249    250
    beta    241    242    243    244    245    247    246    248    249    250
 overlap   0.996  0.999  1.000  1.000  1.000  0.999  0.999  1.000  1.000  1.000


   alpha    251    252    253    254    255    256    257    258    259    260
    beta    251    252    253    254    255    256    257    258    259    260
 overlap   0.999  0.999  1.000  0.997  0.997  0.999  0.999  1.000  1.000  1.000


   alpha    261    262    263    264    265    266    267    268    269    270
    beta    261    262    263    264    265    266    267    268    270    269
 overlap   1.000  1.000  1.000  1.000  1.000  1.000  0.995  0.998  0.994  0.998


   alpha    271    272    273    274    275    276    277    278    279    280
    beta    271    272    273    274    275    276    277    278    279    280
 overlap   1.000  0.969  0.970  0.999  1.000  0.999  0.999  1.000  0.999  0.999


   alpha    281    282    283    284    285    286    287    288    289    290
    beta    281    282    283    284    285    286    287    288    289    290
 overlap   0.998  0.998  0.997  0.987  0.989  0.997  0.997  0.884  0.881  0.997


   alpha    291    292    293    294    295    296    297    298    299    300
    beta    291    292    293    294    295    297    296    298    299    300
 overlap   0.998  0.940  0.936  0.993  0.998  0.998  1.000  0.997  1.000  0.997


   alpha    301    302    303    304    305    306    307    308    309    310
    beta    301    302    303    304    305    306    307    308    309    310
 overlap   1.000  0.999  0.989  0.984  0.990  0.998  1.000  1.000  1.000  1.000


   alpha    311    312    313    314    315    316    317    318    319    320
    beta    311    312    313    314    315    316    317    318    319    320
 overlap   1.000  1.000  1.000  1.000  1.000  1.000  1.000  1.000  1.000  1.000


   alpha    321    322    323    324    325    326    327    328    329
    beta    321    322    323    324    325    326    327    328    329
 overlap   1.000  1.000  1.000  1.000  1.000  1.000  1.000  1.000  1.000

     --------------------------
     Expectation value of S2:  
     --------------------------
      <S2> =      0.7530 (Exact =     0.7500)


 center of mass
 --------------
 x =   0.16800070 y =  -1.05909209 z =   1.76540813

 moments of inertia (a.u.)
 ------------------
         943.832998484918          61.426356349570         -66.930347600357
          61.426356349570         619.657510244338         273.559108403552
         -66.930347600357         273.559108403552         359.643308080028

     Multipole analysis of the density
     ---------------------------------

     L   x y z        total         alpha         beta         nuclear
     -   - - -        -----         -----         ----         -------
     0   0 0 0      0.000000    -24.000000    -23.000000     47.000000

     1   1 0 0     -0.014919     -3.719459     -3.765493      7.470033
     1   0 1 0      0.390249     23.644702     23.508558    -46.763011
     1   0 0 1      0.931204    -41.193966    -41.179848     83.305018

     2   2 0 0    -25.279788    -19.280434    -18.789021     12.789667
     2   1 1 0      0.580906     19.557509     18.875471    -37.852074
     2   1 0 1     -0.239400    -23.166243    -22.721382     45.648225
     2   0 2 0    -28.962158   -126.906893   -122.239517    220.184252
     2   0 1 1      1.246471    108.113369    106.695187   -213.562085
     2   0 0 2    -25.072614   -239.243987   -233.600255    447.771628


 Task  times  cpu:      176.6s     wall:      179.0s


                                NWChem Input Module
                                -------------------


 Summary of allocated global arrays
-----------------------------------
  No active global arrays


MA_summarize_allocated_blocks: starting scan ...
heap block 'gridpts', handle 107, address 0x1090c968:
	type of elements:		double precision
	number of elements:		33554432
	address of client space:	0x1090c9c0
	index for client space:		10134673
	total number of bytes:		268435552
MA_summarize_allocated_blocks: scan completed: 1 heap block, 0 stack blocks
MA usage statistics:

	allocation statistics:
					      heap	     stack
					      ----	     -----
	current number of blocks	         1	         0
	maximum number of blocks	        21	        53
	current total bytes		 268435552	         0
	maximum total bytes		 269192336	  40245016
	maximum total K-bytes		    269193	     40246
	maximum total M-bytes		       270	        41


                                     CITATION
                                     --------
                Please cite the following reference when publishing
                           results obtained with NWChem:

          E. Apra, E. J. Bylaska, W. A. de Jong, N. Govind, K. Kowalski,
       T. P. Straatsma, M. Valiev, H. J. J. van Dam, Y. Alexeev, J. Anchell,
       V. Anisimov, F. W. Aquino, R. Atta-Fynn, J. Autschbach, N. P. Bauman,
     J. C. Becca, D. E. Bernholdt, K. Bhaskaran-Nair, S. Bogatko, P. Borowski,
         J. Boschen, J. Brabec, A. Bruner, E. Cauet, Y. Chen, G. N. Chuev,
      C. J. Cramer, J. Daily, M. J. O. Deegan, T. H. Dunning Jr., M. Dupuis,
   K. G. Dyall, G. I. Fann, S. A. Fischer, A. Fonari, H. Fruchtl, L. Gagliardi,
      J. Garza, N. Gawande, S. Ghosh, K. Glaesemann, A. W. Gotz, J. Hammond,
       V. Helms, E. D. Hermes, K. Hirao, S. Hirata, M. Jacquelin, L. Jensen,
   B. G. Johnson, H. Jonsson, R. A. Kendall, M. Klemm, R. Kobayashi, V. Konkov,
      S. Krishnamoorthy, M. Krishnan, Z. Lin, R. D. Lins, R. J. Littlefield,
      A. J. Logsdail, K. Lopata, W. Ma, A. V. Marenich, J. Martin del Campo,
   D. Mejia-Rodriguez, J. E. Moore, J. M. Mullin, T. Nakajima, D. R. Nascimento,
    J. A. Nichols, P. J. Nichols, J. Nieplocha, A. Otero-de-la-Roza, B. Palmer,
    A. Panyala, T. Pirojsirikul, B. Peng, R. Peverati, J. Pittner, L. Pollack,
   R. M. Richard, P. Sadayappan, G. C. Schatz, W. A. Shelton, D. W. Silverstein,
   D. M. A. Smith, T. A. Soares, D. Song, M. Swart, H. L. Taylor, G. S. Thomas,
            V. Tipparaju, D. G. Truhlar, K. Tsemekhman, T. Van Voorhis,
      A. Vazquez-Mayagoitia, P. Verma, O. Villa, A. Vishnu, K. D. Vogiatzis,
        D. Wang, J. H. Weare, M. J. Williamson, T. L. Windus, K. Wolinski,
        A. T. Wong, Q. Wu, C. Yang, Q. Yu, M. Zacharias, Z. Zhang, Y. Zhao,
                                and R. J. Harrison
                        "NWChem: Past, present, and future
                         J. Chem. Phys. 152, 184102 (2020)
                               doi:10.1063/5.0004997

                                      AUTHORS
                                      -------
  E. Apra, E. J. Bylaska, N. Govind, K. Kowalski, M. Valiev, D. Mejia-Rodriguez,
       A. Kunitsa, N. P. Bauman, A. Panyala, W. A. de Jong, T. P. Straatsma,
   H. J. J. van Dam, D. Wang, T. L. Windus, J. Hammond, J. Autschbach, A. Woods,
    K. Bhaskaran-Nair, J. Brabec, K. Lopata, S. A. Fischer, S. Krishnamoorthy,
     M. Jacquelin, W. Ma, M. Klemm, O. Villa, Y. Chen, V. Anisimov, F. Aquino,
     S. Hirata, M. T. Hackler, E. Hermes, L. Jensen, J. E. Moore, J. C. Becca,
      V. Konjkov, T. Risthaus, M. Malagoli, A. Marenich, A. Otero-de-la-Roza,
        J. Mullin, P. Nichols, R. Peverati, J. Pittner, Y. Zhao, P.-D. Fan,
        A. Fonari, M. J. Williamson, R. J. Harrison, J. R. Rehr, M. Dupuis,
     D. Silverstein, D. M. A. Smith, J. Nieplocha, V. Tipparaju, M. Krishnan,
     B. E. Van Kuiken, A. Vazquez-Mayagoitia, M. Swart, Q. Wu, T. Van Voorhis,
     A. A. Auer, M. Nooijen, L. D. Crosby, E. Brown, G. Cisneros, G. I. Fann,
   H. Fruchtl, J. Garza, K. Hirao, R. A. Kendall, J. A. Nichols, K. Tsemekhman,
    K. Wolinski, J. Anchell, D. E. Bernholdt, P. Borowski, T. Clark, D. Clerc,
   H. Dachsel, M. J. O. Deegan, K. Dyall, D. Elwood, E. Glendening, M. Gutowski,
   A. C. Hess, J. Jaffe, B. G. Johnson, J. Ju, R. Kobayashi, R. Kutteh, Z. Lin,
   R. Littlefield, X. Long, B. Meng, T. Nakajima, S. Niu, L. Pollack, M. Rosing,
   K. Glaesemann, G. Sandrone, M. Stave, H. Taylor, G. Thomas, J. H. van Lenthe,
                               A. T. Wong, Z. Zhang.

 Total times  cpu:      176.7s     wall:      180.1s
