 argument  1 = proton/mol.nwi
                                         
                                         


             Northwest Computational Chemistry Package (NWChem) 7.2.2
             --------------------------------------------------------


                    Environmental Molecular Sciences Laboratory
                       Pacific Northwest National Laboratory
                                Richland, WA 99352

                              Copyright (c) 1994-2022
                       Pacific Northwest National Laboratory
                            Battelle Memorial Institute

             NWChem is an open-source computational chemistry package
                        distributed under the terms of the
                      Educational Community License (ECL) 2.0
             A copy of the license is included with this distribution
                              in the LICENSE.TXT file

                                  ACKNOWLEDGMENT
                                  --------------

            This software and its documentation were developed at the
            EMSL at Pacific Northwest National Laboratory, a multiprogram
            national laboratory, operated for the U.S. Department of Energy
            by Battelle under Contract Number DE-AC05-76RL01830. Support
            for this work was provided by the Department of Energy Office
            of Biological and Environmental Research, Office of Basic
            Energy Sciences, and the Office of Advanced Scientific Computing.


           Job information
           ---------------

    hostname        = r317.ib.bridges2.psc.edu
    program         = nwchem
    date            = Wed Oct  2 10:51:56 2024

    compiled        = Mon_Mar_18_17:03:37_2024
    source          = /ocean/projects/pscstaff/mmadrid/nwchem-7.2.2
    nwchem branch   = 7.2.2
    nwchem revision = 74936fb9
    ga revision     = 5.8.0
    use scalapack   = F
    input           = proton/mol.nwi
    prefix          = dft.
    data base       = .//dft.db
    status          = startup
    nproc           =       15
    time left       =     -1s



           Memory information
           ------------------

    heap     =   67108864 doubles =    512.0 Mbytes
    stack    =   67108861 doubles =    512.0 Mbytes
    global   =  134217728 doubles =   1024.0 Mbytes (distinct from heap & stack)
    total    =  268435453 doubles =   2048.0 Mbytes
    verify   = yes
    hardfail = no 


           Directory information
           ---------------------

  0 permanent = ./
  0 scratch   = /jet/home/hmt47/nwchem_scratch/




                                NWChem Input Module
                                -------------------


  library name resolved from: environment
  library file name is: </opt/packages/nwchem/nwchem7.2.2/share/nwchem/libraries/>
  


 Summary of "ao basis" -> "" (cartesian)
 ------------------------------------------------------------------------------
       Tag                 Description            Shells   Functions and Types
 ---------------- ------------------------------  ------  ---------------------
 *                        aug-cc-pVTZ                 on all atoms 


  pbe96 is a nonlocal functional; adding pw91lda local functional. 

 Scaling coordinates for geometry "geometry" by  1.889725989
 (inverse scale =  0.529177249)



                             Geometry "geometry" -> ""
                             -------------------------

 Output coordinates in angstroms (scale by  1.889725989 to convert to a.u.)

  No.       Tag          Charge          X              Y              Z
 ---- ---------------- ---------- -------------- -------------- --------------
    1 F                    9.0000     0.00000000     0.00000000     0.00000000
    2 H                    1.0000     0.91320274     0.02365322    -0.40681850

      Atomic Mass 
      ----------- 

      F                 18.998400
      H                  1.007825


 Effective nuclear repulsion energy (a.u.)       4.7625952410

            Nuclear Dipole moment (a.u.) 
            ----------------------------
        X                 Y               Z
 ---------------- ---------------- ----------------
     1.7257029424     0.0446981072    -0.7687754846


            XYZ format geometry
            -------------------
     2
 geometry
 F                     0.00000000     0.00000000     0.00000000
 H                     0.91320274     0.02365322    -0.40681850



                           NWChem Geometry Optimization
                           ----------------------------


 maximum gradient threshold         (gmax) =   0.000450
 rms gradient threshold             (grms) =   0.000300
 maximum cartesian step threshold   (xmax) =   0.001800
 rms cartesian step threshold       (xrms) =   0.001200
 fixed trust radius                (trust) =   0.300000
 maximum step size to saddle      (sadstp) =   0.100000
 energy precision                  (eprec) =   5.0D-06
 maximum number of steps          (nptopt) =   40
 initial hessian option           (inhess) =    0
 line search option               (linopt) =    1
 hessian update option            (modupd) =    1
 saddle point option              (modsad) =    0
 initial eigen-mode to follow     (moddir) =    0
 initial variable to follow       (vardir) =    0
 follow first negative mode     (firstneg) =    T
 apply conjugacy                    (opcg) =    F
 source of zmatrix                         =           


          -------------------
          Energy Minimization
          -------------------


 Using diagonal initial Hessian 

          --------
          Step   0
          --------


                         Geometry "geometry" -> "geometry"
                         ---------------------------------

 Output coordinates in angstroms (scale by  1.889725989 to convert to a.u.)

  No.       Tag          Charge          X              Y              Z
 ---- ---------------- ---------- -------------- -------------- --------------
    1 F                    9.0000     0.00000000     0.00000000     0.00000000
    2 H                    1.0000     0.91320274     0.02365322    -0.40681850

      Atomic Mass 
      ----------- 

      F                 18.998400
      H                  1.007825


 Effective nuclear repulsion energy (a.u.)       4.7625952410

            Nuclear Dipole moment (a.u.) 
            ----------------------------
        X                 Y               Z
 ---------------- ---------------- ----------------
     1.7257029424     0.0446981072    -0.7687754846


                                 NWChem DFT Module
                                 -----------------


                      Basis "ao basis" -> "ao basis" (cartesian)
                      -----
  F (Fluorine)
  ------------
            Exponent  Coefficients 
       -------------- ---------------------------------------------------------
  1 S  1.95000000E+04  0.000507
  1 S  2.92300000E+03  0.003923
  1 S  6.64500000E+02  0.020200
  1 S  1.87500000E+02  0.079010
  1 S  6.06200000E+01  0.230439
  1 S  2.14200000E+01  0.432872
  1 S  7.95000000E+00  0.349964
  1 S  8.81500000E-01 -0.007892

  2 S  1.95000000E+04 -0.000117
  2 S  2.92300000E+03 -0.000912
  2 S  6.64500000E+02 -0.004717
  2 S  1.87500000E+02 -0.019086
  2 S  6.06200000E+01 -0.059655
  2 S  2.14200000E+01 -0.140010
  2 S  7.95000000E+00 -0.176782
  2 S  8.81500000E-01  0.605043

  3 S  2.25700000E+00  1.000000

  4 S  3.04100000E-01  1.000000

  5 S  9.15800000E-02  1.000000

  6 P  4.38800000E+01  0.016665
  6 P  9.92600000E+00  0.104472
  6 P  2.93000000E+00  0.317260

  7 P  9.13200000E-01  1.000000

  8 P  2.67200000E-01  1.000000

  9 P  7.36100000E-02  1.000000

 10 D  3.10700000E+00  1.000000

 11 D  8.55000000E-01  1.000000

 12 D  2.92000000E-01  1.000000

 13 F  1.91700000E+00  1.000000

 14 F  7.24000000E-01  1.000000

  H (Hydrogen)
  ------------
            Exponent  Coefficients 
       -------------- ---------------------------------------------------------
  1 S  3.38700000E+01  0.006068
  1 S  5.09500000E+00  0.045308
  1 S  1.15900000E+00  0.202822

  2 S  3.25800000E-01  1.000000

  3 S  1.02700000E-01  1.000000

  4 S  2.52600000E-02  1.000000

  5 P  1.40700000E+00  1.000000

  6 P  3.88000000E-01  1.000000

  7 P  1.02000000E-01  1.000000

  8 D  1.05700000E+00  1.000000

  9 D  2.47000000E-01  1.000000



 Summary of "ao basis" -> "ao basis" (cartesian)
 ------------------------------------------------------------------------------
       Tag                 Description            Shells   Functions and Types
 ---------------- ------------------------------  ------  ---------------------
 F                        aug-cc-pVTZ               14       55   5s4p3d2f
 H                        aug-cc-pVTZ                9       25   4s3p2d




 Summary of "ao basis" -> "ao basis" (cartesian)
 ------------------------------------------------------------------------------
       Tag                 Description            Shells   Functions and Types
 ---------------- ------------------------------  ------  ---------------------
 F                        aug-cc-pVTZ               14       55   5s4p3d2f
 H                        aug-cc-pVTZ                9       25   4s3p2d


  Caching 1-el integrals 

            General Information
            -------------------
          SCF calculation type: DFT
          Wavefunction type:  closed shell.
          No. of atoms     :     2
          No. of electrons :    10
           Alpha electrons :     5
            Beta electrons :     5
          Charge           :     0
          Spin multiplicity:     1
          Use of symmetry is: off; symmetry adaption is: off
          Maximum number of iterations: 200
          AO basis - number of functions:    80
                     number of shells:    23
          Convergence on energy requested:  1.00D-06
          Convergence on density requested:  1.00D-05
          Convergence on gradient requested:  5.00D-04

              XC Information
              --------------
          PerdewBurkeErnzerhof Exchange Functional  1.000          
            Perdew 1991 LDA Correlation Functional  1.000 local    
           PerdewBurkeErnz. Correlation Functional  1.000 non-local

             Grid Information
             ----------------
          Grid used for XC integration:  medium    
          Radial quadrature: Mura-Knowles        
          Angular quadrature: Lebedev. 
          Tag              B.-S. Rad. Rad. Pts. Rad. Cut. Ang. Pts.
          ---              ---------- --------- --------- ---------
          F                   0.50       49           9.0       434
          H                   0.35       45          10.0       434
          Grid pruning is: on 
          Number of quadrature shells:    94
          Spatial weights used:  Erf1

          Convergence Information
          -----------------------
          Convergence aids based upon iterative change in 
          total energy or number of iterations. 
          Levelshifting, if invoked, occurs when the 
          HOMO/LUMO gap drops below (HL_TOL):  1.00D-02
          DIIS, if invoked, will attempt to extrapolate 
          using up to (NFOCK): 10 stored Fock matrices.

                    Damping(40%)  Levelshifting(0.0)       DIIS
                  --------------- ------------------- ---------------
          dE  on:    start            0.00D+00            start   
          dE off:  200 iters          0.00D+00          200 iters 


      Screening Tolerance Information
      -------------------------------
          Density screening/tol_rho:  1.00D-10
          AO Gaussian exp screening on grid/accAOfunc:  14
          CD Gaussian exp screening on grid/accCDfunc:  20
          XC Gaussian exp screening on grid/accXCfunc:  20
          Schwarz screening/accCoul:  1.00D-08


 Forcing the number of linearly dependent vectors to be  0

      Superposition of Atomic Density Guess
      -------------------------------------

 Sum of atomic energies:         -99.91261217
   Time after variat. SCF:      0.3
   Time prior to 1st pass:      0.3

 Grid_pts file          = /jet/home/hmt47/nwchem_scratch//dft.gridpts.00
 Record size in doubles =  12289        No. of grid_pts per rec  =   3070
 Max. records in memory =      2        Max. recs in file   =  67550051


           Memory utilization after 1st SCF pass: 
           Heap Space remaining (MW):       33.53            33527056
          Stack Space remaining (MW):       67.11            67108340

   convergence    iter        energy       DeltaE   RMS-Dens  Diis-err    time
 ---------------- ----- ----------------- --------- --------- ---------  ------
 d=40,ls=0.0,diis     1   -100.3253445344 -1.05D+02  1.05D-02  4.01D+00     0.4
 d=40,ls=0.0,diis     2   -100.3575672791 -3.22D-02  8.60D-03  7.48D-01     0.5
 d=40,ls=0.0,diis     3   -100.3352343423  2.23D-02  2.11D-03  4.46D-01     0.5
 d=40,ls=0.0,diis     4   -100.3715055158 -3.63D-02  8.99D-04  8.63D-02     0.6
 d=40,ls=0.0,diis     5   -100.3827673898 -1.13D-02  3.81D-04  1.68D-02     0.6
  Resetting Diis
 d=40,ls=0.0,diis     6   -100.3865790139 -3.81D-03  1.65D-04  3.03D-03     0.7
 d=40,ls=0.0,diis     7   -100.3879602729 -1.38D-03  2.04D-04  4.95D-04     0.7
 d=40,ls=0.0,diis     8   -100.3884402736 -4.80D-04  7.12D-05  3.81D-04     0.7
 d=40,ls=0.0,diis     9   -100.3886725352 -2.32D-04  3.63D-05  6.96D-05     0.8
 d=40,ls=0.0,diis    10   -100.3887628346 -9.03D-05  1.23D-05  9.20D-06     0.8
 d=40,ls=0.0,diis    11   -100.3887982031 -3.54D-05  4.71D-06  1.37D-06     0.9
 d=40,ls=0.0,diis    12   -100.3888122626 -1.41D-05  1.89D-06  2.20D-07     0.9
 d=40,ls=0.0,diis    13   -100.3888178743 -5.61D-06  7.56D-07  3.53D-08     1.0
  Singularity in Pulay matrix. Error and Fock matrices removed. 
  Singularity in Pulay matrix. Error and Fock matrices removed. 
  Singularity in Pulay matrix. Error and Fock matrices removed. 
  Singularity in Pulay matrix. Error and Fock matrices removed. 
 d=40,ls=0.0,diis    14   -100.3888201171 -2.24D-06  3.03D-07  5.65D-09     1.0
  Singularity in Pulay matrix. Error and Fock matrices removed. 
  Singularity in Pulay matrix. Error and Fock matrices removed. 
  Singularity in Pulay matrix. Error and Fock matrices removed. 
 d=40,ls=0.0,diis    15   -100.3888210139 -8.97D-07  1.21D-07  9.04D-10     1.1


         Total DFT energy =     -100.388821013850
      One electron energy =     -149.660452873632
           Coulomb energy =       55.183757763391
    Exchange-Corr. energy =      -10.674721144606
 Nuclear repulsion energy =        4.762595240997

 Numeric. integr. density =       10.000000735246

     Total iterative time =      0.7s



                       DFT Final Molecular Orbital Analysis
                       ------------------------------------

 Vector    1  Occ=2.000000D+00  E=-2.425804D+01
              MO Center=  7.0D-05,  1.8D-06, -3.1D-05, r^2= 1.2D-02
   Bfn.  Coefficient  Atom+Function         Bfn.  Coefficient  Atom+Function  
  ----- ------------  ---------------      ----- ------------  ---------------
     1      0.972951  1 F  s                  3      0.059608  1 F  s          
     4     -0.039027  1 F  s          

 Vector    2  Occ=2.000000D+00  E=-1.082423D+00
              MO Center=  1.2D-01,  3.1D-03, -5.3D-02, r^2= 3.7D-01
   Bfn.  Coefficient  Atom+Function         Bfn.  Coefficient  Atom+Function  
  ----- ------------  ---------------      ----- ------------  ---------------
     2      0.520049  1 F  s                  4      0.378504  1 F  s          
     3      0.155785  1 F  s                 56      0.081398  2 H  s          
    57      0.071875  2 H  s                  5      0.058054  1 F  s          
     9      0.047793  1 F  px                 6      0.046803  1 F  px         
    58     -0.030551  2 H  s          

 Vector    3  Occ=2.000000D+00  E=-4.803213D-01
              MO Center=  1.1D-01,  2.8D-03, -4.8D-02, r^2= 6.5D-01
   Bfn.  Coefficient  Atom+Function         Bfn.  Coefficient  Atom+Function  
  ----- ------------  ---------------      ----- ------------  ---------------
     6      0.311031  1 F  px                 9      0.294862  1 F  px         
    57      0.233216  2 H  s                  4     -0.225080  1 F  s          
    58      0.208512  2 H  s                 12      0.164362  1 F  px         
     5     -0.161662  1 F  s                 56      0.161878  2 H  s          
     2     -0.146005  1 F  s                  8     -0.138560  1 F  pz         

 Vector    4  Occ=2.000000D+00  E=-3.476894D-01
              MO Center=  2.6D-02,  6.7D-04, -1.2D-02, r^2= 5.2D-01
   Bfn.  Coefficient  Atom+Function         Bfn.  Coefficient  Atom+Function  
  ----- ------------  ---------------      ----- ------------  ---------------
     7      0.290659  1 F  py                10      0.283188  1 F  py         
     8      0.257418  1 F  pz                11      0.250802  1 F  pz         
    13      0.220676  1 F  py                14      0.195439  1 F  pz         
     6      0.107148  1 F  px                 9      0.104394  1 F  px         
    12      0.081349  1 F  px                16      0.043831  1 F  py         

 Vector    5  Occ=2.000000D+00  E=-3.476894D-01
              MO Center=  2.6D-02,  6.7D-04, -1.2D-02, r^2= 5.2D-01
   Bfn.  Coefficient  Atom+Function         Bfn.  Coefficient  Atom+Function  
  ----- ------------  ---------------      ----- ------------  ---------------
     7      0.278665  1 F  py                10      0.271503  1 F  py         
     8     -0.262896  1 F  pz                11     -0.256139  1 F  pz         
    13      0.211570  1 F  py                14     -0.199598  1 F  pz         
     6     -0.124334  1 F  px                 9     -0.121138  1 F  px         
    12     -0.094398  1 F  px                16      0.042023  1 F  py         

 Vector    6  Occ=0.000000D+00  E=-5.041723D-02
              MO Center=  1.2D+00,  3.0D-02, -5.2D-01, r^2= 4.3D+00
   Bfn.  Coefficient  Atom+Function         Bfn.  Coefficient  Atom+Function  
  ----- ------------  ---------------      ----- ------------  ---------------
    59      0.559087  2 H  s                 66      0.225660  2 H  px         
     4     -0.198925  1 F  s                 58      0.197697  2 H  s          
     5      0.182107  1 F  s                 57      0.165074  2 H  s          
     9     -0.142439  1 F  px                 6     -0.138891  1 F  px         
     2     -0.131062  1 F  s                 12     -0.109028  1 F  px         

 Vector    7  Occ=0.000000D+00  E= 5.403109D-02
              MO Center=  5.9D-01,  1.5D-02, -2.6D-01, r^2= 1.1D+01
   Bfn.  Coefficient  Atom+Function         Bfn.  Coefficient  Atom+Function  
  ----- ------------  ---------------      ----- ------------  ---------------
     5      2.914251  1 F  s                 58     -1.729342  2 H  s          
    59     -1.457107  2 H  s                 66      1.168655  2 H  px         
    15      0.717737  1 F  px                 4      0.580138  1 F  s          
    68     -0.520619  2 H  pz                17     -0.319741  1 F  pz         
    57     -0.299433  2 H  s                 63      0.297347  2 H  px         

 Vector    8  Occ=0.000000D+00  E= 1.026704D-01
              MO Center= -3.0D-01, -7.7D-03,  1.3D-01, r^2= 7.9D+00
   Bfn.  Coefficient  Atom+Function         Bfn.  Coefficient  Atom+Function  
  ----- ------------  ---------------      ----- ------------  ---------------
    58      8.218419  2 H  s                  5     -5.149221  1 F  s          
    15     -2.487983  1 F  px                66     -1.630129  2 H  px         
    17      1.108360  1 F  pz                68      0.726199  2 H  pz         
     4     -0.656769  1 F  s                 59     -0.539975  2 H  s          
    78     -0.523235  2 H  dyy               80     -0.485541  2 H  dzz        

 Vector    9  Occ=0.000000D+00  E= 1.102762D-01
              MO Center=  2.2D-01,  5.7D-03, -9.8D-02, r^2= 5.4D+00
   Bfn.  Coefficient  Atom+Function         Bfn.  Coefficient  Atom+Function  
  ----- ------------  ---------------      ----- ------------  ---------------
    17      0.909535  1 F  pz                14     -0.475216  1 F  pz         
    15      0.403951  1 F  px                12     -0.211057  1 F  px         
    68      0.203019  2 H  pz                11     -0.159130  1 F  pz         
     8     -0.106398  1 F  pz                53      0.093603  1 F  fyyz       
    55      0.093004  1 F  fzzz              48      0.091782  1 F  fxxz       

 Vector   10  Occ=0.000000D+00  E= 1.102762D-01
              MO Center=  2.2D-01,  5.7D-03, -9.8D-02, r^2= 5.4D+00
   Bfn.  Coefficient  Atom+Function         Bfn.  Coefficient  Atom+Function  
  ----- ------------  ---------------      ----- ------------  ---------------
    16      0.994925  1 F  py                13     -0.519831  1 F  py         
    67      0.222079  2 H  py                10     -0.174070  1 F  py         
     7     -0.116387  1 F  py                52      0.102386  1 F  fyyy       
    54      0.101732  1 F  fyzz              47      0.099103  1 F  fxxy       
    15     -0.040886  1 F  px                64      0.036700  2 H  py         

 Vector   11  Occ=0.000000D+00  E= 1.957965D-01
              MO Center=  3.4D-02,  8.9D-04, -1.5D-02, r^2= 6.5D+00
   Bfn.  Coefficient  Atom+Function         Bfn.  Coefficient  Atom+Function  
  ----- ------------  ---------------      ----- ------------  ---------------
     5      6.144617  1 F  s                 58     -5.154851  2 H  s          
    15      2.219183  1 F  px                17     -0.988614  1 F  pz         
    59     -0.594107  2 H  s                 57      0.537152  2 H  s          
    30     -0.503374  1 F  dxx               33     -0.503157  1 F  dyy        
    35     -0.503200  1 F  dzz                4     -0.402705  1 F  s          

 Vector   12  Occ=0.000000D+00  E= 1.990283D-01
              MO Center=  3.8D-01,  1.0D-02, -1.7D-01, r^2= 5.9D+00
   Bfn.  Coefficient  Atom+Function         Bfn.  Coefficient  Atom+Function  
  ----- ------------  ---------------      ----- ------------  ---------------
    68      1.868653  2 H  pz                17     -1.524878  1 F  pz         
    66      0.837749  2 H  px                15     -0.683629  1 F  px         
    14     -0.415079  1 F  pz                77     -0.273961  2 H  dxz        
    32     -0.245760  1 F  dxz               67     -0.204284  2 H  py         
    12     -0.186087  1 F  px                16      0.166702  1 F  py         

 Vector   13  Occ=0.000000D+00  E= 1.990283D-01
              MO Center=  3.8D-01,  1.0D-02, -1.7D-01, r^2= 5.9D+00
   Bfn.  Coefficient  Atom+Function         Bfn.  Coefficient  Atom+Function  
  ----- ------------  ---------------      ----- ------------  ---------------
    67      2.047270  2 H  py                16     -1.670636  1 F  py         
    13     -0.454756  1 F  py                76     -0.375238  2 H  dxy        
    31     -0.336612  1 F  dxy               68      0.206368  2 H  pz         
    17     -0.168403  1 F  pz                79      0.166102  2 H  dyz        
    34      0.149003  1 F  dyz               64      0.143912  2 H  py         

 Vector   14  Occ=0.000000D+00  E= 2.742581D-01
              MO Center=  1.3D+00,  3.2D-02, -5.6D-01, r^2= 6.4D+00
   Bfn.  Coefficient  Atom+Function         Bfn.  Coefficient  Atom+Function  
  ----- ------------  ---------------      ----- ------------  ---------------
     5      7.099175  1 F  s                 58     -4.608187  2 H  s          
    66      3.159774  2 H  px                57     -2.624671  2 H  s          
     4      2.184432  1 F  s                 12      1.643998  1 F  px         
    68     -1.407633  2 H  pz                59     -1.120898  2 H  s          
    15      0.813105  1 F  px                75     -0.789296  2 H  dxx        

 Vector   15  Occ=0.000000D+00  E= 3.927187D-01
              MO Center= -1.5D-01, -4.0D-03,  6.8D-02, r^2= 6.6D+00
   Bfn.  Coefficient  Atom+Function         Bfn.  Coefficient  Atom+Function  
  ----- ------------  ---------------      ----- ------------  ---------------
    58     25.351948  2 H  s                  5    -19.040248  1 F  s          
    66     -5.124293  2 H  px                15     -4.741122  1 F  px         
    57     -3.445220  2 H  s                 68      2.282798  2 H  pz         
    17      2.112101  1 F  pz                78     -1.824409  2 H  dyy        
    80     -1.779882  2 H  dzz               75     -1.599431  2 H  dxx        

 Vector   16  Occ=0.000000D+00  E= 5.914342D-01
              MO Center=  6.1D-01,  1.6D-02, -2.7D-01, r^2= 2.1D+00
   Bfn.  Coefficient  Atom+Function         Bfn.  Coefficient  Atom+Function  
  ----- ------------  ---------------      ----- ------------  ---------------
    78      0.643285  2 H  dyy               80     -0.537001  2 H  dzz        
    77     -0.478774  2 H  dxz               33      0.336138  1 F  dyy        
    35     -0.280602  1 F  dzz               32     -0.250176  1 F  dxz        
    75     -0.106283  2 H  dxx               30     -0.055537  1 F  dxx        
    49     -0.043573  1 F  fxyy              72     -0.032959  2 H  dyy        

 Vector   17  Occ=0.000000D+00  E= 5.914351D-01
              MO Center=  6.1D-01,  1.6D-02, -2.7D-01, r^2= 2.1D+00
   Bfn.  Coefficient  Atom+Function         Bfn.  Coefficient  Atom+Function  
  ----- ------------  ---------------      ----- ------------  ---------------
    79      1.175559  2 H  dyz               34      0.614265  1 F  dyz        
    76      0.523695  2 H  dxy               31      0.273646  1 F  dxy        
    50     -0.063861  1 F  fxyz              73     -0.060230  2 H  dyz        
    28     -0.043964  1 F  dyz               47     -0.035493  1 F  fxxy       
    54      0.035493  1 F  fyzz              22      0.034178  1 F  dyz        

 Vector   18  Occ=0.000000D+00  E= 6.856423D-01
              MO Center=  1.0D+00,  2.7D-02, -4.6D-01, r^2= 2.9D+00
   Bfn.  Coefficient  Atom+Function         Bfn.  Coefficient  Atom+Function  
  ----- ------------  ---------------      ----- ------------  ---------------
    13      1.969482  1 F  py                76      1.628214  2 H  dxy        
    67     -1.521989  2 H  py                14     -1.513030  1 F  pz         
    31      1.350267  1 F  dxy               68      1.169249  2 H  pz         
    77     -0.993298  2 H  dxz               32     -0.823735  1 F  dxz        
    79     -0.765039  2 H  dyz               12     -0.725045  1 F  px         

 Vector   19  Occ=0.000000D+00  E= 6.856423D-01
              MO Center=  1.0D+00,  2.7D-02, -4.6D-01, r^2= 2.9D+00
   Bfn.  Coefficient  Atom+Function         Bfn.  Coefficient  Atom+Function  
  ----- ------------  ---------------      ----- ------------  ---------------
    14      1.815686  1 F  pz                13      1.676665  1 F  py         
    76      1.416028  2 H  dxy               68     -1.403138  2 H  pz         
    67     -1.295703  2 H  py                77      1.230901  2 H  dxz        
    31      1.174303  1 F  dxy               32      1.020778  1 F  dxz        
    12      0.765434  1 F  px                80     -0.675141  2 H  dzz        

 Vector   20  Occ=0.000000D+00  E= 6.904506D-01
              MO Center=  1.0D+00,  2.7D-02, -4.6D-01, r^2= 3.6D+00
   Bfn.  Coefficient  Atom+Function         Bfn.  Coefficient  Atom+Function  
  ----- ------------  ---------------      ----- ------------  ---------------
    57      6.248758  2 H  s                  4     -5.104143  1 F  s          
    63     -2.348436  2 H  px                75      2.292854  2 H  dxx        
    12     -2.221698  1 F  px                30     -2.050421  1 F  dxx        
    58     -2.057016  2 H  s                 77     -1.731042  2 H  dxz        
    32      1.357549  1 F  dxz               66     -1.247120  2 H  px         

 Vector   21  Occ=0.000000D+00  E= 7.543880D-01
              MO Center= -1.9D-01, -4.8D-03,  8.3D-02, r^2= 3.0D+00
   Bfn.  Coefficient  Atom+Function         Bfn.  Coefficient  Atom+Function  
  ----- ------------  ---------------      ----- ------------  ---------------
    13      0.908776  1 F  py                14      0.880515  1 F  pz         
    16     -0.803300  1 F  py                17     -0.778318  1 F  pz         
    76     -0.754563  2 H  dxy               31     -0.728882  1 F  dxy        
    77     -0.588527  2 H  dxz               32     -0.568497  1 F  dxz        
    67      0.559887  2 H  py                68      0.542475  2 H  pz         

 Vector   22  Occ=0.000000D+00  E= 7.543880D-01
              MO Center= -1.9D-01, -4.8D-03,  8.3D-02, r^2= 3.0D+00
   Bfn.  Coefficient  Atom+Function         Bfn.  Coefficient  Atom+Function  
  ----- ------------  ---------------      ----- ------------  ---------------
    13      0.954089  1 F  py                16     -0.843354  1 F  py         
    14     -0.821176  1 F  pz                76     -0.775637  2 H  dxy        
    31     -0.749239  1 F  dxy               17      0.725867  1 F  pz         
    67      0.587804  2 H  py                77      0.531785  2 H  dxz        
    32      0.513686  1 F  dxz               68     -0.505917  2 H  pz         

 Vector   23  Occ=0.000000D+00  E= 7.608187D-01
              MO Center=  2.9D-01,  7.6D-03, -1.3D-01, r^2= 4.0D+00
   Bfn.  Coefficient  Atom+Function         Bfn.  Coefficient  Atom+Function  
  ----- ------------  ---------------      ----- ------------  ---------------
     4      2.853194  1 F  s                  5      2.682139  1 F  s          
    58      2.111573  2 H  s                 57     -1.823261  2 H  s          
    33     -1.620575  1 F  dyy               35     -1.436775  1 F  dzz        
    75     -1.084322  2 H  dxx               80     -0.953557  2 H  dzz        
    12      0.945262  1 F  px                78     -0.921290  2 H  dyy        

 Vector   24  Occ=0.000000D+00  E= 8.368283D-01
              MO Center=  6.4D-01,  1.7D-02, -2.8D-01, r^2= 2.5D+00
   Bfn.  Coefficient  Atom+Function         Bfn.  Coefficient  Atom+Function  
  ----- ------------  ---------------      ----- ------------  ---------------
    76      1.778653  2 H  dxy               13      1.010599  1 F  py         
    79     -0.765068  2 H  dyz               77      0.738891  2 H  dxz        
    31     -0.607100  1 F  dxy               14      0.511932  1 F  pz         
    80     -0.399316  2 H  dzz               75      0.353484  2 H  dxx        
    64     -0.273426  2 H  py                67     -0.268548  2 H  py         

 Vector   25  Occ=0.000000D+00  E= 8.368283D-01
              MO Center=  6.4D-01,  1.7D-02, -2.8D-01, r^2= 2.5D+00
   Bfn.  Coefficient  Atom+Function         Bfn.  Coefficient  Atom+Function  
  ----- ------------  ---------------      ----- ------------  ---------------
    77      1.277415  2 H  dxz               76     -0.943170  2 H  dxy        
    14      0.918106  1 F  pz                75      0.741066  2 H  dxx        
    80     -0.716140  2 H  dzz               13     -0.549628  1 F  py         
    79      0.470357  2 H  dyz               32     -0.436015  1 F  dxz        
    12      0.423239  1 F  px                31      0.321928  1 F  dxy        

 Vector   26  Occ=0.000000D+00  E= 8.783721D-01
              MO Center=  1.2D-01,  3.0D-03, -5.2D-02, r^2= 3.7D+00
   Bfn.  Coefficient  Atom+Function         Bfn.  Coefficient  Atom+Function  
  ----- ------------  ---------------      ----- ------------  ---------------
     5      5.846410  1 F  s                 58     -4.876710  2 H  s          
    66      2.696294  2 H  px                12      1.995369  1 F  px         
     4      1.485867  1 F  s                 68     -1.201159  2 H  pz         
    75     -1.089544  2 H  dxx               32      0.988190  1 F  dxz        
    14     -0.888908  1 F  pz                30     -0.616379  1 F  dxx        

 Vector   27  Occ=0.000000D+00  E= 8.943087D-01
              MO Center=  3.6D-01,  9.4D-03, -1.6D-01, r^2= 2.5D+00
   Bfn.  Coefficient  Atom+Function         Bfn.  Coefficient  Atom+Function  
  ----- ------------  ---------------      ----- ------------  ---------------
    33      1.107315  1 F  dyy               78     -0.933817  2 H  dyy        
    35     -0.924364  1 F  dzz               32     -0.824135  1 F  dxz        
    80      0.779532  2 H  dzz               77      0.695007  2 H  dxz        
    30     -0.182950  1 F  dxx               75      0.154285  2 H  dxx        
    27     -0.086001  1 F  dyy               29      0.071792  1 F  dzz        

 Vector   28  Occ=0.000000D+00  E= 8.943110D-01
              MO Center=  3.6D-01,  9.4D-03, -1.6D-01, r^2= 2.5D+00
   Bfn.  Coefficient  Atom+Function         Bfn.  Coefficient  Atom+Function  
  ----- ------------  ---------------      ----- ------------  ---------------
    34      2.023535  1 F  dyz               79     -1.706481  2 H  dyz        
    31      0.901456  1 F  dxy               76     -0.760213  2 H  dxy        
    28     -0.157158  1 F  dyz               50      0.080257  1 F  fxyz       
    25     -0.070012  1 F  dxy               22      0.053879  1 F  dyz        
    73      0.049269  2 H  dyz               47      0.044606  1 F  fxxy       

 Vector   29  Occ=0.000000D+00  E= 1.015186D+00
              MO Center=  3.4D-01,  8.8D-03, -1.5D-01, r^2= 4.2D+00
   Bfn.  Coefficient  Atom+Function         Bfn.  Coefficient  Atom+Function  
  ----- ------------  ---------------      ----- ------------  ---------------
    58     26.261812  2 H  s                  5    -19.023414  1 F  s          
    66     -5.397405  2 H  px                15     -3.839536  1 F  px         
    78     -3.566949  2 H  dyy               80     -3.208791  2 H  dzz        
     4     -2.969029  1 F  s                 68      2.404465  2 H  pz         
    75     -1.757331  2 H  dxx               17      1.710457  1 F  pz         

 Vector   30  Occ=0.000000D+00  E= 1.297920D+00
              MO Center=  4.4D-01,  1.1D-02, -2.0D-01, r^2= 2.7D+00
   Bfn.  Coefficient  Atom+Function         Bfn.  Coefficient  Atom+Function  
  ----- ------------  ---------------      ----- ------------  ---------------
    57     14.167337  2 H  s                 12     -9.766914  1 F  px         
    30     -5.336476  1 F  dxx                4     -5.121732  1 F  s          
    32      4.961029  1 F  dxz               14      4.351018  1 F  pz         
    63     -3.042416  2 H  px                77      1.793671  2 H  dxz        
    65      1.355352  2 H  pz                78      1.129436  2 H  dyy        

 Vector   31  Occ=0.000000D+00  E= 1.413815D+00
              MO Center=  6.3D-01,  1.6D-02, -2.8D-01, r^2= 2.4D+00
   Bfn.  Coefficient  Atom+Function         Bfn.  Coefficient  Atom+Function  
  ----- ------------  ---------------      ----- ------------  ---------------
    13      2.828565  1 F  py                31      2.717989  1 F  dxy        
    14     -2.662731  1 F  pz                64     -2.288941  2 H  py         
    76      2.299573  2 H  dxy               65      2.154744  2 H  pz         
    32     -2.043058  1 F  dxz               77     -1.728543  2 H  dxz        
    34     -1.291997  1 F  dyz               12     -1.259472  1 F  px         

 Vector   32  Occ=0.000000D+00  E= 1.413815D+00
              MO Center=  6.3D-01,  1.6D-02, -2.8D-01, r^2= 2.4D+00
   Bfn.  Coefficient  Atom+Function         Bfn.  Coefficient  Atom+Function  
  ----- ------------  ---------------      ----- ------------  ---------------
    13      2.943989  1 F  py                31      2.889296  1 F  dxy        
    14      2.612844  1 F  pz                76      2.444508  2 H  dxy        
    64     -2.382345  2 H  py                65     -2.114374  2 H  pz         
    32      2.068937  1 F  dxz               77      1.750438  2 H  dxz        
    34     -1.209149  1 F  dyz               35     -1.131531  1 F  dzz        

 Vector   33  Occ=0.000000D+00  E= 1.658299D+00
              MO Center=  1.1D+00,  2.9D-02, -5.0D-01, r^2= 2.0D+00
   Bfn.  Coefficient  Atom+Function         Bfn.  Coefficient  Atom+Function  
  ----- ------------  ---------------      ----- ------------  ---------------
    57     14.149138  2 H  s                  4    -12.169100  1 F  s          
    12     -7.291712  1 F  px                63     -7.249556  2 H  px         
    30     -3.273329  1 F  dxx               14      3.248351  1 F  pz         
    65      3.229571  2 H  pz                32      2.939672  1 F  dxz        
    75      2.656471  2 H  dxx                5     -1.901658  1 F  s          

 Vector   34  Occ=0.000000D+00  E= 2.358157D+00
              MO Center=  7.2D-02,  1.9D-03, -3.2D-02, r^2= 1.5D+00
   Bfn.  Coefficient  Atom+Function         Bfn.  Coefficient  Atom+Function  
  ----- ------------  ---------------      ----- ------------  ---------------
    13      1.522486  1 F  py                14      1.406047  1 F  pz         
    47     -1.400416  1 F  fxxy              54     -1.317586  1 F  fyzz       
    52     -1.300224  1 F  fyyy              48     -1.257736  1 F  fxxz       
    55     -1.218738  1 F  fzzz              53     -1.198532  1 F  fyyz       
    12      0.586939  1 F  px                10      0.578997  1 F  py         

 Vector   35  Occ=0.000000D+00  E= 2.358157D+00
              MO Center=  7.2D-02,  1.9D-03, -3.2D-02, r^2= 1.5D+00
   Bfn.  Coefficient  Atom+Function         Bfn.  Coefficient  Atom+Function  
  ----- ------------  ---------------      ----- ------------  ---------------
    13      1.522783  1 F  py                47     -1.396544  1 F  fxxy       
    14     -1.376456  1 F  pz                54     -1.321989  1 F  fyzz       
    52     -1.300478  1 F  fyyy              48      1.226777  1 F  fxxz       
    55      1.193088  1 F  fzzz              53      1.177798  1 F  fyyz       
    12     -0.652633  1 F  px                46      0.599464  1 F  fxxx       

 Vector   36  Occ=0.000000D+00  E= 2.430240D+00
              MO Center=  1.3D-01,  3.3D-03, -5.6D-02, r^2= 8.8D-01
   Bfn.  Coefficient  Atom+Function         Bfn.  Coefficient  Atom+Function  
  ----- ------------  ---------------      ----- ------------  ---------------
    27      0.957230  1 F  dyy               29     -0.799064  1 F  dzz        
    26     -0.712454  1 F  dxz               49      0.676740  1 F  fxyy       
    33     -0.561484  1 F  dyy               35      0.468709  1 F  dzz        
    48     -0.454377  1 F  fxxz              32      0.417906  1 F  dxz        
    51     -0.340910  1 F  fxzz              53     -0.301449  1 F  fyyz       

 Vector   37  Occ=0.000000D+00  E= 2.430241D+00
              MO Center=  1.3D-01,  3.3D-03, -5.6D-02, r^2= 8.8D-01
   Bfn.  Coefficient  Atom+Function         Bfn.  Coefficient  Atom+Function  
  ----- ------------  ---------------      ----- ------------  ---------------
    28      1.749252  1 F  dyz               34     -1.026062  1 F  dyz        
    50      0.991803  1 F  fxyz              25      0.779303  1 F  dxy        
    47      0.551259  1 F  fxxy              54     -0.551219  1 F  fyzz       
    31     -0.457117  1 F  dxy               73      0.288348  2 H  dyz        
    70      0.128461  2 H  dxy               40     -0.115535  1 F  fxyz       

 Vector   38  Occ=0.000000D+00  E= 2.435143D+00
              MO Center= -2.7D-01, -6.9D-03,  1.2D-01, r^2= 1.8D+00
   Bfn.  Coefficient  Atom+Function         Bfn.  Coefficient  Atom+Function  
  ----- ------------  ---------------      ----- ------------  ---------------
    57      5.589277  2 H  s                 46     -2.140846  1 F  fxxx       
    30     -2.027445  1 F  dxx               63     -1.871610  2 H  px         
    48      1.795583  1 F  fxxz              51     -1.758518  1 F  fxzz       
     5      1.638057  1 F  s                 32      1.357474  1 F  dxz        
    49     -1.197860  1 F  fxyy              78     -1.073883  2 H  dyy        

 Vector   39  Occ=0.000000D+00  E= 2.482316D+00
              MO Center=  5.3D-02,  1.4D-03, -2.4D-02, r^2= 1.1D+00
   Bfn.  Coefficient  Atom+Function         Bfn.  Coefficient  Atom+Function  
  ----- ------------  ---------------      ----- ------------  ---------------
    25      1.350572  1 F  dxy               26      0.932046  1 F  dxz        
    31     -0.799919  1 F  dxy               28     -0.566563  1 F  dyz        
    32     -0.552033  1 F  dxz               29     -0.509435  1 F  dzz        
    24      0.474771  1 F  dxx               13      0.450836  1 F  py         
    14      0.385237  1 F  pz                34      0.335564  1 F  dyz        

 Vector   40  Occ=0.000000D+00  E= 2.482316D+00
              MO Center=  5.3D-02,  1.4D-03, -2.4D-02, r^2= 1.1D+00
   Bfn.  Coefficient  Atom+Function         Bfn.  Coefficient  Atom+Function  
  ----- ------------  ---------------      ----- ------------  ---------------
    25      1.222636  1 F  dxy               26     -0.956299  1 F  dxz        
    31     -0.724144  1 F  dxy               28     -0.582624  1 F  dyz        
    24     -0.571484  1 F  dxx               32      0.566398  1 F  dxz        
    29      0.539432  1 F  dzz               13      0.416866  1 F  py         
    14     -0.407921  1 F  pz                34      0.345077  1 F  dyz        

 Vector   41  Occ=0.000000D+00  E= 2.578507D+00
              MO Center=  3.5D-10, -6.0D-10,  6.8D-10, r^2= 9.3D-01
   Bfn.  Coefficient  Atom+Function         Bfn.  Coefficient  Atom+Function  
  ----- ------------  ---------------      ----- ------------  ---------------
    54      1.746174  1 F  fyzz              50      1.624339  1 F  fxyz       
    53     -1.322899  1 F  fyyz              52     -0.707284  1 F  fyyy       
    49     -0.534375  1 F  fxyy              51      0.461821  1 F  fxzz       
    55      0.379407  1 F  fzzz              47      0.375630  1 F  fxxy       
    44     -0.230551  1 F  fyzz              40     -0.214463  1 F  fxyz       

 Vector   42  Occ=0.000000D+00  E= 2.578507D+00
              MO Center= -2.5D-10, -1.5D-09, -7.0D-10, r^2= 9.3D-01
   Bfn.  Coefficient  Atom+Function         Bfn.  Coefficient  Atom+Function  
  ----- ------------  ---------------      ----- ------------  ---------------
    53      1.925016  1 F  fyyz              54      1.227284  1 F  fyzz       
    50      0.993764  1 F  fxyz              49      0.894488  1 F  fxyy       
    51     -0.737296  1 F  fxzz              55     -0.527907  1 F  fzzz       
    52     -0.475162  1 F  fyyy              48     -0.341340  1 F  fxxz       
    43     -0.254163  1 F  fyyz              47      0.198171  1 F  fxxy       

 Vector   43  Occ=0.000000D+00  E= 2.584750D+00
              MO Center=  3.8D-01,  9.9D-03, -1.7D-01, r^2= 1.8D+00
   Bfn.  Coefficient  Atom+Function         Bfn.  Coefficient  Atom+Function  
  ----- ------------  ---------------      ----- ------------  ---------------
    57      8.873612  2 H  s                 58      8.151998  2 H  s          
    12     -5.081554  1 F  px                 5     -3.912042  1 F  s          
    63     -3.257012  2 H  px                30     -3.158024  1 F  dxx        
    14      2.263758  1 F  pz                66     -2.177890  2 H  px         
    35     -1.997676  1 F  dzz               24     -1.861175  1 F  dxx        

 Vector   44  Occ=0.000000D+00  E= 2.759687D+00
              MO Center=  1.2D-02,  3.2D-04, -5.5D-03, r^2= 1.1D+00
   Bfn.  Coefficient  Atom+Function         Bfn.  Coefficient  Atom+Function  
  ----- ------------  ---------------      ----- ------------  ---------------
    49      1.765131  1 F  fxyy              48     -1.185145  1 F  fxxz       
    51     -0.889186  1 F  fxzz              53     -0.786257  1 F  fyyz       
    55      0.657134  1 F  fzzz              33      0.557690  1 F  dyy        
    27     -0.524684  1 F  dyy               35     -0.465541  1 F  dzz        
    29      0.437988  1 F  dzz               78     -0.432260  2 H  dyy        

 Vector   45  Occ=0.000000D+00  E= 2.759689D+00
              MO Center=  1.2D-02,  3.2D-04, -5.5D-03, r^2= 1.1D+00
   Bfn.  Coefficient  Atom+Function         Bfn.  Coefficient  Atom+Function  
  ----- ------------  ---------------      ----- ------------  ---------------
    50      2.586866  1 F  fxyz              47      1.437827  1 F  fxxy       
    54     -1.437713  1 F  fyzz              34      1.019138  1 F  dyz        
    28     -0.958820  1 F  dyz               79     -0.789920  2 H  dyz        
    31      0.454035  1 F  dxy               25     -0.427163  1 F  dxy        
    76     -0.351916  2 H  dxy               40     -0.311376  1 F  fxyz       

 Vector   46  Occ=0.000000D+00  E= 2.849888D+00
              MO Center= -2.0D-02, -5.3D-04,  9.1D-03, r^2= 2.0D+00
   Bfn.  Coefficient  Atom+Function         Bfn.  Coefficient  Atom+Function  
  ----- ------------  ---------------      ----- ------------  ---------------
    58     15.154794  2 H  s                  5    -11.819844  1 F  s          
     4     -9.502331  1 F  s                 57      8.389116  2 H  s          
    12     -5.590396  1 F  px                63     -2.837764  2 H  px         
    66     -2.800883  2 H  px                32      2.548979  1 F  dxz        
    14      2.490440  1 F  pz                78     -2.278384  2 H  dyy        

 Vector   47  Occ=0.000000D+00  E= 3.220680D+00
              MO Center=  6.4D-01,  1.6D-02, -2.8D-01, r^2= 1.4D+00
   Bfn.  Coefficient  Atom+Function         Bfn.  Coefficient  Atom+Function  
  ----- ------------  ---------------      ----- ------------  ---------------
     4     11.251549  1 F  s                 58     -7.365112  2 H  s          
    57     -6.467077  2 H  s                  5      6.241900  1 F  s          
    63      5.630901  2 H  px                65     -2.508485  2 H  pz         
    66      2.184461  2 H  px                77      2.116747  2 H  dxz        
    49      2.055545  1 F  fxyy              51      1.773337  1 F  fxzz       

 Vector   48  Occ=0.000000D+00  E= 3.225541D+00
              MO Center=  9.4D-02,  2.4D-03, -4.2D-02, r^2= 1.4D+00
   Bfn.  Coefficient  Atom+Function         Bfn.  Coefficient  Atom+Function  
  ----- ------------  ---------------      ----- ------------  ---------------
    51      2.298622  1 F  fxzz              50      2.151916  1 F  fxyz       
    31     -1.975266  1 F  dxy               13     -1.908060  1 F  py         
    14     -1.855511  1 F  pz                47     -1.824684  1 F  fxxy       
    64      1.723554  2 H  py                65      1.676096  2 H  pz         
    32     -1.546138  1 F  dxz               76     -1.388600  2 H  dxy        

 Vector   49  Occ=0.000000D+00  E= 3.225541D+00
              MO Center=  9.4D-02,  2.4D-03, -4.2D-02, r^2= 1.4D+00
   Bfn.  Coefficient  Atom+Function         Bfn.  Coefficient  Atom+Function  
  ----- ------------  ---------------      ----- ------------  ---------------
    50      2.470303  1 F  fxyz              51     -2.149041  1 F  fxzz       
    31     -2.037960  1 F  dxy               13     -2.010632  1 F  py         
    47     -1.810113  1 F  fxxy              64      1.816207  2 H  py         
    14      1.724065  1 F  pz                65     -1.557340  2 H  pz         
    76     -1.432673  2 H  dxy               32      1.391882  1 F  dxz        

 Vector   50  Occ=0.000000D+00  E= 3.737983D+00
              MO Center=  7.9D-01,  2.0D-02, -3.5D-01, r^2= 7.9D-01
   Bfn.  Coefficient  Atom+Function         Bfn.  Coefficient  Atom+Function  
  ----- ------------  ---------------      ----- ------------  ---------------
    72     -0.998577  2 H  dyy               49      0.971355  1 F  fxyy       
    74      0.833468  2 H  dzz               71      0.743429  2 H  dxz        
    48     -0.652247  1 F  fxxz              51     -0.489063  1 F  fxzz       
    53     -0.432333  1 F  fyyz              55      0.361527  1 F  fzzz       
    78      0.268715  2 H  dyy               27      0.223393  1 F  dyy        

 Vector   51  Occ=0.000000D+00  E= 3.737983D+00
              MO Center=  7.9D-01,  2.0D-02, -3.5D-01, r^2= 7.9D-01
   Bfn.  Coefficient  Atom+Function         Bfn.  Coefficient  Atom+Function  
  ----- ------------  ---------------      ----- ------------  ---------------
    73      1.824691  2 H  dyz               50     -1.423256  1 F  fxyz       
    70      0.813241  2 H  dxy               47     -0.791426  1 F  fxxy       
    54      0.790890  1 F  fyzz              79     -0.491020  2 H  dyz        
    28     -0.408203  1 F  dyz               76     -0.218841  2 H  dxy        
    25     -0.181931  1 F  dxy               40      0.165303  1 F  fxyz       

 Vector   52  Occ=0.000000D+00  E= 3.774219D+00
              MO Center=  6.4D-01,  1.7D-02, -2.9D-01, r^2= 1.6D+00
   Bfn.  Coefficient  Atom+Function         Bfn.  Coefficient  Atom+Function  
  ----- ------------  ---------------      ----- ------------  ---------------
    57      8.955574  2 H  s                  4     -7.155900  1 F  s          
    58     -6.047399  2 H  s                 12     -5.961170  1 F  px         
    63     -4.303882  2 H  px                30     -3.125780  1 F  dxx        
     5      2.832491  1 F  s                 32      2.779096  1 F  dxz        
    14      2.655614  1 F  pz                48      2.484715  1 F  fxxz       

 Vector   53  Occ=0.000000D+00  E= 3.920568D+00
              MO Center=  9.6D-01,  2.5D-02, -4.3D-01, r^2= 6.7D-01
   Bfn.  Coefficient  Atom+Function         Bfn.  Coefficient  Atom+Function  
  ----- ------------  ---------------      ----- ------------  ---------------
    64      1.920396  2 H  py                13     -1.382627  1 F  py         
    31     -1.334412  1 F  dxy               65     -1.234931  2 H  pz         
    61     -1.003642  2 H  py                70     -0.937972  2 H  dxy        
    14      0.889113  1 F  pz                76     -0.849264  2 H  dxy        
    32      0.677897  1 F  dxz               62      0.645403  2 H  pz         

 Vector   54  Occ=0.000000D+00  E= 3.920568D+00
              MO Center=  9.6D-01,  2.5D-02, -4.3D-01, r^2= 6.7D-01
   Bfn.  Coefficient  Atom+Function         Bfn.  Coefficient  Atom+Function  
  ----- ------------  ---------------      ----- ------------  ---------------
    65      1.767900  2 H  pz                64      1.371786  2 H  py         
    14     -1.272835  1 F  pz                32     -1.003774  1 F  dxz        
    13     -0.987645  1 F  py                31     -0.974624  1 F  dxy        
    62     -0.923944  2 H  pz                63      0.752043  2 H  px         
    61     -0.716926  2 H  py                71     -0.705563  2 H  dxz        

 Vector   55  Occ=0.000000D+00  E= 4.843058D+00
              MO Center=  6.8D-01,  1.8D-02, -3.0D-01, r^2= 1.3D+00
   Bfn.  Coefficient  Atom+Function         Bfn.  Coefficient  Atom+Function  
  ----- ------------  ---------------      ----- ------------  ---------------
     4     12.659812  1 F  s                 63      2.998635  2 H  px         
    27     -2.554568  1 F  dyy               29     -2.486920  1 F  dzz        
    24     -2.212772  1 F  dxx                5      1.887327  1 F  s          
    69     -1.737478  2 H  dxx               30     -1.723860  1 F  dxx        
    35     -1.636875  1 F  dzz                3     -1.622270  1 F  s          

 Vector   56  Occ=0.000000D+00  E= 4.882083D+00
              MO Center=  5.8D-01,  1.5D-02, -2.6D-01, r^2= 9.0D-01
   Bfn.  Coefficient  Atom+Function         Bfn.  Coefficient  Atom+Function  
  ----- ------------  ---------------      ----- ------------  ---------------
    47      2.112470  1 F  fxxy              50     -1.864936  1 F  fxyz       
    70      1.790416  2 H  dxy               51     -1.696801  1 F  fxzz       
    71      1.344889  2 H  dxz               25      1.205283  1 F  dxy        
    48      1.168386  1 F  fxxz              26      0.905361  1 F  dxz        
    64     -0.845710  2 H  py                46      0.805354  1 F  fxxx       

 Vector   57  Occ=0.000000D+00  E= 4.882084D+00
              MO Center=  5.8D-01,  1.5D-02, -2.6D-01, r^2= 9.0D-01
   Bfn.  Coefficient  Atom+Function         Bfn.  Coefficient  Atom+Function  
  ----- ------------  ---------------      ----- ------------  ---------------
    50     -2.050788  1 F  fxyz              47      2.039701  1 F  fxxy       
    70      1.770032  2 H  dxy               51      1.629406  1 F  fxzz       
    71     -1.263711  2 H  dxz               25      1.191560  1 F  dxy        
    48     -1.033005  1 F  fxxz              46     -0.887028  1 F  fxxx       
    26     -0.850712  1 F  dxz               64     -0.853908  2 H  py         

 Vector   58  Occ=0.000000D+00  E= 5.192151D+00
              MO Center=  5.4D-01,  1.4D-02, -2.4D-01, r^2= 1.7D+00
   Bfn.  Coefficient  Atom+Function         Bfn.  Coefficient  Atom+Function  
  ----- ------------  ---------------      ----- ------------  ---------------
    57     13.321223  2 H  s                  4      5.664783  1 F  s          
    63     -5.460278  2 H  px                24     -5.105796  1 F  dxx        
    30     -4.300165  1 F  dxx               12     -4.202632  1 F  px         
    58      4.022710  2 H  s                 29     -3.976029  1 F  dzz        
    27     -3.697252  1 F  dyy                3     -3.155545  1 F  s          

 Vector   59  Occ=0.000000D+00  E= 5.516794D+00
              MO Center=  1.5D-01,  4.0D-03, -6.9D-02, r^2= 2.7D+00
   Bfn.  Coefficient  Atom+Function         Bfn.  Coefficient  Atom+Function  
  ----- ------------  ---------------      ----- ------------  ---------------
     4     30.879838  1 F  s                 58    -16.575507  2 H  s          
     5     13.878367  1 F  s                 57    -10.056069  2 H  s          
    27     -6.337164  1 F  dyy               29     -6.091164  1 F  dzz        
    33     -5.594727  1 F  dyy               35     -5.285130  1 F  dzz        
    24     -5.094232  1 F  dxx                3     -4.736090  1 F  s          

 Vector   60  Occ=0.000000D+00  E= 6.528518D+00
              MO Center=  2.2D-01,  5.7D-03, -9.9D-02, r^2= 1.3D+00
   Bfn.  Coefficient  Atom+Function         Bfn.  Coefficient  Atom+Function  
  ----- ------------  ---------------      ----- ------------  ---------------
    58      7.680858  2 H  s                  4      4.545555  1 F  s          
     5     -4.527952  1 F  s                 48     -2.945737  1 F  fxxz       
    46      2.882874  1 F  fxxx              56     -2.425274  2 H  s          
    69     -2.150135  2 H  dxx               51      2.128334  1 F  fxzz       
    26     -1.679820  1 F  dxz               74     -1.635739  2 H  dzz        

 Vector   61  Occ=0.000000D+00  E= 6.654995D+00
              MO Center=  4.5D-03,  1.2D-04, -2.0D-03, r^2= 6.5D-01
   Bfn.  Coefficient  Atom+Function         Bfn.  Coefficient  Atom+Function  
  ----- ------------  ---------------      ----- ------------  ---------------
    10      2.152418  1 F  py                11      1.977986  1 F  pz         
    52     -1.405433  1 F  fyyy              54     -1.396419  1 F  fyzz       
    47     -1.353407  1 F  fxxy              53     -1.292714  1 F  fyyz       
    55     -1.282258  1 F  fzzz              48     -1.262099  1 F  fxxz       
    13      1.221304  1 F  py                 7     -1.125111  1 F  py         

 Vector   62  Occ=0.000000D+00  E= 6.654995D+00
              MO Center=  4.5D-03,  1.2D-04, -2.0D-03, r^2= 6.5D-01
   Bfn.  Coefficient  Atom+Function         Bfn.  Coefficient  Atom+Function  
  ----- ------------  ---------------      ----- ------------  ---------------
    10      2.142096  1 F  py                11     -1.946070  1 F  pz         
    52     -1.398693  1 F  fyyy              54     -1.387580  1 F  fyzz       
    47     -1.349059  1 F  fxxy              53      1.269524  1 F  fyyz       
    55      1.261569  1 F  fzzz              48      1.244066  1 F  fxxz       
    13      1.215447  1 F  py                 7     -1.119715  1 F  py         

 Vector   63  Occ=0.000000D+00  E= 7.725876D+00
              MO Center=  3.0D-01,  7.8D-03, -1.3D-01, r^2= 9.2D-01
   Bfn.  Coefficient  Atom+Function         Bfn.  Coefficient  Atom+Function  
  ----- ------------  ---------------      ----- ------------  ---------------
    12      4.330484  1 F  px                58      4.328903  2 H  s          
    57     -3.894073  2 H  s                 24      3.299600  1 F  dxx        
    30      3.106636  1 F  dxx                4     -2.594498  1 F  s          
     5     -2.515704  1 F  s                  9      2.245226  1 F  px         
    49     -2.120159  1 F  fxyy              63      2.128054  2 H  px         

 Vector   64  Occ=0.000000D+00  E= 8.155450D+00
              MO Center=  7.1D-11, -6.8D-11,  1.6D-10, r^2= 4.0D-01
   Bfn.  Coefficient  Atom+Function         Bfn.  Coefficient  Atom+Function  
  ----- ------------  ---------------      ----- ------------  ---------------
    43      1.926046  1 F  fyyz              44      1.727835  1 F  fyzz       
    40      1.439679  1 F  fxyz              53     -0.975297  1 F  fyyz       
    39      0.910474  1 F  fxyy              54     -0.874929  1 F  fyzz       
    41     -0.746353  1 F  fxzz              50     -0.729013  1 F  fxyz       
    42     -0.674979  1 F  fyyy              45     -0.524973  1 F  fzzz       

 Vector   65  Occ=0.000000D+00  E= 8.155450D+00
              MO Center= -7.0D-11,  1.1D-10, -1.5D-10, r^2= 4.0D-01
   Bfn.  Coefficient  Atom+Function         Bfn.  Coefficient  Atom+Function  
  ----- ------------  ---------------      ----- ------------  ---------------
    43      1.870707  1 F  fyyz              44     -1.741843  1 F  fyzz       
    40     -1.648844  1 F  fxyz              53     -0.947275  1 F  fyyz       
    54      0.882023  1 F  fyzz              50      0.834928  1 F  fxyz       
    39      0.778222  1 F  fxyy              42      0.709759  1 F  fyyy       
    41     -0.665664  1 F  fxzz              45     -0.531842  1 F  fzzz       

 Vector   66  Occ=0.000000D+00  E= 8.240634D+00
              MO Center=  2.8D-02,  7.3D-04, -1.3D-02, r^2= 4.2D-01
   Bfn.  Coefficient  Atom+Function         Bfn.  Coefficient  Atom+Function  
  ----- ------------  ---------------      ----- ------------  ---------------
    39      2.195910  1 F  fxyy              38     -1.474243  1 F  fxxz       
    49     -1.248662  1 F  fxyy              41     -1.106789  1 F  fxzz       
    43     -0.978944  1 F  fyyz              48      0.838300  1 F  fxxz       
    45      0.817729  1 F  fzzz              51      0.629355  1 F  fxzz       
    53      0.556658  1 F  fyyz              55     -0.464986  1 F  fzzz       

 Vector   67  Occ=0.000000D+00  E= 8.240635D+00
              MO Center=  2.8D-02,  7.3D-04, -1.3D-02, r^2= 4.2D-01
   Bfn.  Coefficient  Atom+Function         Bfn.  Coefficient  Atom+Function  
  ----- ------------  ---------------      ----- ------------  ---------------
    40      3.218903  1 F  fxyz              50     -1.830368  1 F  fxyz       
    37      1.788302  1 F  fxxy              44     -1.789258  1 F  fyzz       
    47     -1.016884  1 F  fxxy              54      1.017428  1 F  fyzz       
    22      0.314309  1 F  dyz               79      0.216260  2 H  dyz        
    28     -0.189951  1 F  dyz               19      0.139970  1 F  dxy        

 Vector   68  Occ=0.000000D+00  E= 8.505342D+00
              MO Center=  6.1D-02,  1.6D-03, -2.7D-02, r^2= 4.7D-01
   Bfn.  Coefficient  Atom+Function         Bfn.  Coefficient  Atom+Function  
  ----- ------------  ---------------      ----- ------------  ---------------
    40      2.169107  1 F  fxyz              41     -1.851675  1 F  fxzz       
    37     -1.745040  1 F  fxxy              50     -1.620262  1 F  fxyz       
    51      1.414625  1 F  fxzz              47      1.227504  1 F  fxxy       
    13      0.830395  1 F  py                64     -0.787311  2 H  py         
    36      0.743612  1 F  fxxx              14     -0.723809  1 F  pz         

 Vector   69  Occ=0.000000D+00  E= 8.505342D+00
              MO Center=  6.1D-02,  1.6D-03, -2.7D-02, r^2= 4.7D-01
   Bfn.  Coefficient  Atom+Function         Bfn.  Coefficient  Atom+Function  
  ----- ------------  ---------------      ----- ------------  ---------------
    41      1.956518  1 F  fxzz              40      1.920653  1 F  fxyz       
    37     -1.778365  1 F  fxxy              51     -1.490812  1 F  fxzz       
    50     -1.434674  1 F  fxyz              47      1.255095  1 F  fxxy       
    38     -0.851504  1 F  fxxz              13      0.800912  1 F  py         
    14      0.766455  1 F  pz                64     -0.759357  2 H  py         

 Vector   70  Occ=0.000000D+00  E= 8.586041D+00
              MO Center= -2.6D-02, -6.8D-04,  1.2D-02, r^2= 3.1D-01
   Bfn.  Coefficient  Atom+Function         Bfn.  Coefficient  Atom+Function  
  ----- ------------  ---------------      ----- ------------  ---------------
    22      1.880229  1 F  dyz               28     -1.363372  1 F  dyz        
    19      0.837604  1 F  dxy               34      0.649612  1 F  dyz        
    25     -0.607355  1 F  dxy               40     -0.562136  1 F  fxyz       
    50      0.333980  1 F  fxyz              37     -0.312422  1 F  fxxy       
    44      0.312428  1 F  fyzz              31      0.289389  1 F  dxy        

 Vector   71  Occ=0.000000D+00  E= 8.586041D+00
              MO Center= -2.6D-02, -6.8D-04,  1.2D-02, r^2= 3.1D-01
   Bfn.  Coefficient  Atom+Function         Bfn.  Coefficient  Atom+Function  
  ----- ------------  ---------------      ----- ------------  ---------------
    21      1.028892  1 F  dyy               23     -0.858902  1 F  dzz        
    20     -0.765761  1 F  dxz               27     -0.746059  1 F  dyy        
    29      0.622798  1 F  dzz               26      0.555260  1 F  dxz        
    39     -0.383552  1 F  fxyy              33      0.355478  1 F  dyy        
    35     -0.296747  1 F  dzz               32     -0.264567  1 F  dxz        

 Vector   72  Occ=0.000000D+00  E= 8.792984D+00
              MO Center= -1.0D-02, -2.7D-04,  4.6D-03, r^2= 3.6D-01
   Bfn.  Coefficient  Atom+Function         Bfn.  Coefficient  Atom+Function  
  ----- ------------  ---------------      ----- ------------  ---------------
    19      1.317183  1 F  dxy               25     -1.217083  1 F  dxy        
    20     -0.950309  1 F  dxz               26      0.878090  1 F  dxz        
    22     -0.624582  1 F  dyz               28      0.577117  1 F  dyz        
    18     -0.571210  1 F  dxx               23      0.536710  1 F  dzz        
    24      0.527800  1 F  dxx               40      0.529555  1 F  fxyz       

 Vector   73  Occ=0.000000D+00  E= 8.792984D+00
              MO Center= -1.0D-02, -2.7D-04,  4.6D-03, r^2= 3.6D-01
   Bfn.  Coefficient  Atom+Function         Bfn.  Coefficient  Atom+Function  
  ----- ------------  ---------------      ----- ------------  ---------------
    19      1.345879  1 F  dxy               25     -1.243599  1 F  dxy        
    20      1.001175  1 F  dxz               26     -0.925090  1 F  dxz        
    22     -0.561790  1 F  dyz               23     -0.547892  1 F  dzz        
    28      0.519097  1 F  dyz               18      0.513377  1 F  dxx        
    31      0.512608  1 F  dxy               29      0.506255  1 F  dzz        

 Vector   74  Occ=0.000000D+00  E= 9.254507D+00
              MO Center=  1.3D-01,  3.3D-03, -5.8D-02, r^2= 4.9D-01
   Bfn.  Coefficient  Atom+Function         Bfn.  Coefficient  Atom+Function  
  ----- ------------  ---------------      ----- ------------  ---------------
     4      6.308904  1 F  s                 38      2.266497  1 F  fxxz       
    58     -2.024445  2 H  s                  5      1.963191  1 F  s          
    27     -1.842995  1 F  dyy               29     -1.811063  1 F  dzz        
    24     -1.681658  1 F  dxx               48     -1.625083  1 F  fxxz       
     3     -1.470693  1 F  s                 57     -1.428114  2 H  s          

 Vector   75  Occ=0.000000D+00  E= 9.830588D+00
              MO Center=  1.8D-01,  4.7D-03, -8.0D-02, r^2= 6.9D-01
   Bfn.  Coefficient  Atom+Function         Bfn.  Coefficient  Atom+Function  
  ----- ------------  ---------------      ----- ------------  ---------------
     4      7.424954  1 F  s                 57     -4.386916  2 H  s          
    63      3.691408  2 H  px                26     -3.191082  1 F  dxz        
    24      2.511088  1 F  dxx               46      1.866343  1 F  fxxx       
    69     -1.790607  2 H  dxx               56     -1.718099  2 H  s          
    60      1.692460  2 H  px                48     -1.683109  1 F  fxxz       

 Vector   76  Occ=0.000000D+00  E= 1.418639D+01
              MO Center=  7.1D-02,  1.8D-03, -3.2D-02, r^2= 7.2D-01
   Bfn.  Coefficient  Atom+Function         Bfn.  Coefficient  Atom+Function  
  ----- ------------  ---------------      ----- ------------  ---------------
     2     11.210785  1 F  s                  4      6.826689  1 F  s          
     1      5.993142  1 F  s                 24     -4.908572  1 F  dxx        
     3     -4.861432  1 F  s                 29     -4.636082  1 F  dzz        
    27     -4.568843  1 F  dyy               58      2.750475  2 H  s          
     5     -2.246058  1 F  s                 21     -2.130856  1 F  dyy        

 Vector   77  Occ=0.000000D+00  E= 1.698882D+01
              MO Center=  3.5D-03,  9.0D-05, -1.6D-03, r^2= 1.1D+00
   Bfn.  Coefficient  Atom+Function         Bfn.  Coefficient  Atom+Function  
  ----- ------------  ---------------      ----- ------------  ---------------
    10     11.993772  1 F  py                11     11.924943  1 F  pz         
    37     -5.507403  1 F  fxxy              42     -5.506903  1 F  fyyy       
    44     -5.506990  1 F  fyzz              38     -5.475605  1 F  fxxz       
    43     -5.475291  1 F  fyyz              45     -5.475397  1 F  fzzz       
     9      5.001734  1 F  px                52     -3.266086  1 F  fyyy       

 Vector   78  Occ=0.000000D+00  E= 1.698882D+01
              MO Center=  3.5D-03,  9.0D-05, -1.6D-03, r^2= 1.1D+00
   Bfn.  Coefficient  Atom+Function         Bfn.  Coefficient  Atom+Function  
  ----- ------------  ---------------      ----- ------------  ---------------
    10     12.924688  1 F  py                11    -10.834438  1 F  pz         
    37     -5.934847  1 F  fxxy              42     -5.934331  1 F  fyyy       
    44     -5.934446  1 F  fyzz               9     -5.161351  1 F  px         
    38      4.974853  1 F  fxxz              43      4.974612  1 F  fyyz       
    45      4.974686  1 F  fzzz              52     -3.519588  1 F  fyyy       

 Vector   79  Occ=0.000000D+00  E= 1.926587D+01
              MO Center= -1.3D-02, -3.5D-04,  6.0D-03, r^2= 9.8D-01
   Bfn.  Coefficient  Atom+Function         Bfn.  Coefficient  Atom+Function  
  ----- ------------  ---------------      ----- ------------  ---------------
     9     18.017819  1 F  px                39     -8.178382  1 F  fxyy       
    11     -8.026676  1 F  pz                41     -8.005710  1 F  fxzz       
    36     -7.887961  1 F  fxxx              49     -5.469284  1 F  fxyy       
    51     -5.258334  1 F  fxzz              46     -5.114481  1 F  fxxx       
    12      4.576078  1 F  px                43      3.643350  1 F  fyyz       

 Vector   80  Occ=0.000000D+00  E= 2.247645D+01
              MO Center=  6.6D-03,  1.7D-04, -2.9D-03, r^2= 3.1D-01
   Bfn.  Coefficient  Atom+Function         Bfn.  Coefficient  Atom+Function  
  ----- ------------  ---------------      ----- ------------  ---------------
     4     11.448468  1 F  s                  2      7.397500  1 F  s          
    27     -4.485546  1 F  dyy               29     -4.465895  1 F  dzz        
    24     -4.386258  1 F  dxx               18     -3.392435  1 F  dxx        
    21     -3.368727  1 F  dyy               23     -3.373420  1 F  dzz        
     5      2.423747  1 F  s                  1      2.334904  1 F  s          


 center of mass
 --------------
 x =   0.08693327 y =   0.00225169 z =  -0.03872750

 moments of inertia (a.u.)
 ------------------
           0.567546837195          -0.073823082914           1.269704243225
          -0.073823082914           3.415793693525           0.032887106433
           1.269704243225           0.032887106433           2.852071097444

     Multipole analysis of the density
     ---------------------------------

     L   x y z        total         alpha         beta         nuclear
     -   - - -        -----         -----         ----         -------
     0   0 0 0     -0.000000     -5.000000     -5.000000     10.000000

     1   1 0 0      0.668889     -0.528407     -0.528407      1.725703
     1   0 1 0      0.017325     -0.013686     -0.013686      0.044698
     1   0 0 1     -0.297980      0.235398      0.235398     -0.768775

     2   2 0 0     -2.780299     -2.879175     -2.879175      2.978051
     2   1 1 0      0.044581     -0.016277     -0.016277      0.077136
     2   1 0 1     -0.766756      0.279961      0.279961     -1.326678
     2   0 2 0     -4.500315     -2.251156     -2.251156      0.001998
     2   0 1 1     -0.019860      0.007251      0.007251     -0.034363
     2   0 0 2     -4.159891     -2.375453     -2.375453      0.591016


            General Information
            -------------------
          SCF calculation type: DFT
          Wavefunction type:  closed shell.
          No. of atoms     :     2
          No. of electrons :    10
           Alpha electrons :     5
            Beta electrons :     5
          Charge           :     0
          Spin multiplicity:     1
          Use of symmetry is: off; symmetry adaption is: off
          Maximum number of iterations: 200
          AO basis - number of functions:    80
                     number of shells:    23
          Convergence on energy requested:  1.00D-06
          Convergence on density requested:  1.00D-05
          Convergence on gradient requested:  5.00D-04

              XC Information
              --------------
          PerdewBurkeErnzerhof Exchange Functional  1.000          
            Perdew 1991 LDA Correlation Functional  1.000 local    
           PerdewBurkeErnz. Correlation Functional  1.000 non-local

             Grid Information
             ----------------
          Grid used for XC integration:  medium    
          Radial quadrature: Mura-Knowles        
          Angular quadrature: Lebedev. 
          Tag              B.-S. Rad. Rad. Pts. Rad. Cut. Ang. Pts.
          ---              ---------- --------- --------- ---------
          F                   0.50       49           9.0       434
          H                   0.35       45          10.0       434
          Grid pruning is: on 
          Number of quadrature shells:    94
          Spatial weights used:  Erf1

          Convergence Information
          -----------------------
          Convergence aids based upon iterative change in 
          total energy or number of iterations. 
          Levelshifting, if invoked, occurs when the 
          HOMO/LUMO gap drops below (HL_TOL):  1.00D-02
          DIIS, if invoked, will attempt to extrapolate 
          using up to (NFOCK): 10 stored Fock matrices.

                    Damping(40%)  Levelshifting(0.0)       DIIS
                  --------------- ------------------- ---------------
          dE  on:    start            ASAP                start   
          dE off:  200 iters        200 iters           200 iters 


      Screening Tolerance Information
      -------------------------------
          Density screening/tol_rho:  1.00D-10
          AO Gaussian exp screening on grid/accAOfunc:  14
          CD Gaussian exp screening on grid/accCDfunc:  20
          XC Gaussian exp screening on grid/accXCfunc:  20
          Schwarz screening/accCoul:  1.00D-08



                            NWChem DFT Gradient Module
                            --------------------------



  charge          =   0.00
  wavefunction    = closed shell



                         DFT ENERGY GRADIENTS

    atom               coordinates                        gradient
                 x          y          z           x          y          z
   1 F       0.000000   0.000000   0.000000   -0.052670  -0.001364   0.023464
   2 H       1.725703   0.044698  -0.768775    0.052670   0.001364  -0.023464

                 ----------------------------------------
                 |  Time  |  1-e(secs)   |  2-e(secs)   |
                 ----------------------------------------
                 |  CPU   |       0.00   |       0.12   |
                 ----------------------------------------
                 |  WALL  |       0.00   |       0.12   |
                 ----------------------------------------

@ Step       Energy      Delta E   Gmax     Grms     Xrms     Xmax   Walltime
@ ---- ---------------- -------- -------- -------- -------- -------- --------
@    0    -100.38882101  0.0D+00  0.05267  0.03330  0.00000  0.00000      1.3
                                                                    


                                 NWChem DFT Module
                                 -----------------




 Summary of "ao basis" -> "ao basis" (cartesian)
 ------------------------------------------------------------------------------
       Tag                 Description            Shells   Functions and Types
 ---------------- ------------------------------  ------  ---------------------
 F                        aug-cc-pVTZ               14       55   5s4p3d2f
 H                        aug-cc-pVTZ                9       25   4s3p2d


  Caching 1-el integrals 

            General Information
            -------------------
          SCF calculation type: DFT
          Wavefunction type:  closed shell.
          No. of atoms     :     2
          No. of electrons :    10
           Alpha electrons :     5
            Beta electrons :     5
          Charge           :     0
          Spin multiplicity:     1
          Use of symmetry is: off; symmetry adaption is: off
          Maximum number of iterations: 200
          AO basis - number of functions:    80
                     number of shells:    23
          Convergence on energy requested:  1.00D-06
          Convergence on density requested:  1.00D-05
          Convergence on gradient requested:  5.00D-04

              XC Information
              --------------
          PerdewBurkeErnzerhof Exchange Functional  1.000          
            Perdew 1991 LDA Correlation Functional  1.000 local    
           PerdewBurkeErnz. Correlation Functional  1.000 non-local

             Grid Information
             ----------------
          Grid used for XC integration:  medium    
          Radial quadrature: Mura-Knowles        
          Angular quadrature: Lebedev. 
          Tag              B.-S. Rad. Rad. Pts. Rad. Cut. Ang. Pts.
          ---              ---------- --------- --------- ---------
          F                   0.50       49           9.0       434
          H                   0.35       45          10.0       434
          Grid pruning is: on 
          Number of quadrature shells:    94
          Spatial weights used:  Erf1

          Convergence Information
          -----------------------
          Convergence aids based upon iterative change in 
          total energy or number of iterations. 
          Levelshifting, if invoked, occurs when the 
          HOMO/LUMO gap drops below (HL_TOL):  1.00D-02
          DIIS, if invoked, will attempt to extrapolate 
          using up to (NFOCK): 10 stored Fock matrices.

                    Damping(40%)  Levelshifting(0.0)       DIIS
                  --------------- ------------------- ---------------
          dE  on:    start            ASAP                start   
          dE off:  200 iters        200 iters           200 iters 


      Screening Tolerance Information
      -------------------------------
          Density screening/tol_rho:  1.00D-10
          AO Gaussian exp screening on grid/accAOfunc:  14
          CD Gaussian exp screening on grid/accCDfunc:  20
          XC Gaussian exp screening on grid/accXCfunc:  20
          Schwarz screening/accCoul:  1.00D-08


 Forcing the number of linearly dependent vectors to be  0

 Loading old vectors from job with title :



   Time after variat. SCF:      1.3
   Time prior to 1st pass:      1.3

 Grid_pts file          = /jet/home/hmt47/nwchem_scratch//dft.gridpts.00
 Record size in doubles =  12289        No. of grid_pts per rec  =   3070
 Max. records in memory =      2        Max. recs in file   =  67550051


           Memory utilization after 1st SCF pass: 
           Heap Space remaining (MW):       33.53            33527056
          Stack Space remaining (MW):       67.11            67108340

   convergence    iter        energy       DeltaE   RMS-Dens  Diis-err    time
 ---------------- ----- ----------------- --------- --------- ---------  ------
 d=40,ls=0.0,diis     1   -100.3879323709 -1.06D+02  3.19D-03  4.79D-02     1.4
 d=40,ls=0.0,diis     2   -100.3898092964 -1.88D-03  1.51D-03  7.36D-03     1.4
 d=40,ls=0.0,diis     3   -100.3904182449 -6.09D-04  4.48D-04  2.86D-03     1.5
 d=40,ls=0.0,diis     4   -100.3908748615 -4.57D-04  1.97D-04  3.26D-04     1.5
 d=40,ls=0.0,diis     5   -100.3910346633 -1.60D-04  7.73D-05  5.38D-05     1.6
 d=40,ls=0.0,diis     6   -100.3910974222 -6.28D-05  3.10D-05  8.56D-06     1.6
 d=40,ls=0.0,diis     7   -100.3911222864 -2.49D-05  1.24D-05  1.37D-06     1.7
 d=40,ls=0.0,diis     8   -100.3911321950 -9.91D-06  4.95D-06  2.19D-07     1.7
  Singularity in Pulay matrix. Error and Fock matrices removed. 
  Singularity in Pulay matrix. Error and Fock matrices removed. 
  Singularity in Pulay matrix. Error and Fock matrices removed. 
  Singularity in Pulay matrix. Error and Fock matrices removed. 
 d=40,ls=0.0,diis     9   -100.3911361526 -3.96D-06  1.98D-06  3.51D-08     1.8
  Singularity in Pulay matrix. Error and Fock matrices removed. 
  Singularity in Pulay matrix. Error and Fock matrices removed. 
  Singularity in Pulay matrix. Error and Fock matrices removed. 
  Singularity in Pulay matrix. Error and Fock matrices removed. 
 d=40,ls=0.0,diis    10   -100.3911377346 -1.58D-06  7.93D-07  5.62D-09     1.8
  Singularity in Pulay matrix. Error and Fock matrices removed. 
 d=40,ls=0.0,diis    11   -100.3911383673 -6.33D-07  3.17D-07  8.99D-10     1.9


         Total DFT energy =     -100.391138367278
      One electron energy =     -150.643934375220
           Coulomb energy =       55.642161847571
    Exchange-Corr. energy =      -10.726281057988
 Nuclear repulsion energy =        5.336915218359

 Numeric. integr. density =       10.000001102928

     Total iterative time =      0.5s



                       DFT Final Molecular Orbital Analysis
                       ------------------------------------

 Vector    1  Occ=2.000000D+00  E=-2.425583D+01
              MO Center=  4.9D-02,  1.3D-03, -2.2D-02, r^2= 1.2D-02
   Bfn.  Coefficient  Atom+Function         Bfn.  Coefficient  Atom+Function  
  ----- ------------  ---------------      ----- ------------  ---------------
     1      0.973937  1 F  s                  3      0.059778  1 F  s          
     4     -0.027668  1 F  s          

 Vector    2  Occ=2.000000D+00  E=-1.113799D+00
[...]
   Bfn.  Coefficient  Atom+Function         Bfn.  Coefficient  Atom+Function  
  ----- ------------  ---------------      ----- ------------  ---------------
    21      1.025578  1 F  dyy               23     -0.856129  1 F  dzz        
    20     -0.763306  1 F  dxz               27     -0.750618  1 F  dyy        
    29      0.626599  1 F  dzz               26      0.558662  1 F  dxz        
    39     -0.434244  1 F  fxyy              33      0.369089  1 F  dyy        
    35     -0.308107  1 F  dzz               38      0.291558  1 F  fxxz       

 Vector   72  Occ=0.000000D+00  E= 8.806754D+00
              MO Center=  5.3D-03,  1.4D-04, -2.3D-03, r^2= 3.7D-01
   Bfn.  Coefficient  Atom+Function         Bfn.  Coefficient  Atom+Function  
  ----- ------------  ---------------      ----- ------------  ---------------
    25     -1.295495  1 F  dxy               19      1.277618  1 F  dxy        
    26      0.922331  1 F  dxz               20     -0.909603  1 F  dxz        
    40      0.809311  1 F  fxyz              41     -0.705805  1 F  fxzz       
    37     -0.652887  1 F  fxxy              28      0.613821  1 F  dyz        
    22     -0.605350  1 F  dyz               24      0.554945  1 F  dxx        

 Vector   73  Occ=0.000000D+00  E= 8.806754D+00
              MO Center=  5.3D-03,  1.4D-04, -2.3D-03, r^2= 3.7D-01
   Bfn.  Coefficient  Atom+Function         Bfn.  Coefficient  Atom+Function  
  ----- ------------  ---------------      ----- ------------  ---------------
    25     -1.306885  1 F  dxy               19      1.288850  1 F  dxy        
    26     -0.984236  1 F  dxz               20      0.970654  1 F  dxz        
    40      0.733976  1 F  fxyz              41      0.728359  1 F  fxzz       
    37     -0.681229  1 F  fxxy              28      0.545046  1 F  dyz        
    22     -0.537525  1 F  dyz               29      0.538727  1 F  dzz        

 Vector   74  Occ=0.000000D+00  E= 9.513677D+00
              MO Center=  1.4D-01,  3.7D-03, -6.3D-02, r^2= 4.7D-01
   Bfn.  Coefficient  Atom+Function         Bfn.  Coefficient  Atom+Function  
  ----- ------------  ---------------      ----- ------------  ---------------
     4      7.559389  1 F  s                 27     -2.432049  1 F  dyy        
    29     -2.348606  1 F  dzz                3     -2.024304  1 F  s          
    24     -2.010447  1 F  dxx               38      1.867676  1 F  fxxz       
     5      1.723086  1 F  s                 48     -1.581570  1 F  fxxz       
    58     -1.559866  2 H  s                 33     -1.316677  1 F  dyy        

 Vector   75  Occ=0.000000D+00  E= 1.011513D+01
              MO Center=  3.7D-01,  9.5D-03, -1.6D-01, r^2= 8.6D-01
   Bfn.  Coefficient  Atom+Function         Bfn.  Coefficient  Atom+Function  
  ----- ------------  ---------------      ----- ------------  ---------------
     4      5.610613  1 F  s                 57     -4.676801  2 H  s          
    24      4.186675  1 F  dxx               63      4.060095  2 H  px         
    26     -3.782387  1 F  dxz               56     -3.264385  2 H  s          
    69     -2.439294  2 H  dxx               60      2.393731  2 H  px         
    58      2.277736  2 H  s                  9      2.253879  1 F  px         

 Vector   76  Occ=0.000000D+00  E= 1.464152D+01
              MO Center=  1.7D-01,  4.3D-03, -7.5D-02, r^2= 7.6D-01
   Bfn.  Coefficient  Atom+Function         Bfn.  Coefficient  Atom+Function  
  ----- ------------  ---------------      ----- ------------  ---------------
     2     11.505507  1 F  s                  4      9.162803  1 F  s          
     1      6.133246  1 F  s                  3     -4.574899  1 F  s          
    27     -4.445286  1 F  dyy               29     -4.350328  1 F  dzz        
    24     -3.965504  1 F  dxx               57     -3.334918  2 H  s          
    58      2.629322  2 H  s                 21     -2.120035  1 F  dyy        

 Vector   77  Occ=0.000000D+00  E= 1.701218D+01
              MO Center=  3.4D-02,  8.9D-04, -1.5D-02, r^2= 1.1D+00
   Bfn.  Coefficient  Atom+Function         Bfn.  Coefficient  Atom+Function  
  ----- ------------  ---------------      ----- ------------  ---------------
    10     12.191355  1 F  py                11     11.809143  1 F  pz         
    37     -5.570719  1 F  fxxy              42     -5.596848  1 F  fyyy       
    44     -5.592355  1 F  fyzz              38     -5.405847  1 F  fxxz       
    43     -5.421972  1 F  fyyz              45     -5.416475  1 F  fzzz       
     9      4.945029  1 F  px                52     -3.311359  1 F  fyyy       

 Vector   78  Occ=0.000000D+00  E= 1.701218D+01
              MO Center=  3.4D-02,  8.9D-04, -1.5D-02, r^2= 1.1D+00
   Bfn.  Coefficient  Atom+Function         Bfn.  Coefficient  Atom+Function  
  ----- ------------  ---------------      ----- ------------  ---------------
    10     12.795871  1 F  py                11    -11.016213  1 F  pz         
    37     -5.848082  1 F  fxxy              42     -5.874371  1 F  fyyy       
    44     -5.868521  1 F  fyzz               9     -5.238992  1 F  px         
    38      5.044041  1 F  fxxz              43      5.056740  1 F  fyyz       
    45      5.052783  1 F  fzzz              52     -3.475555  1 F  fyyy       

 Vector   79  Occ=0.000000D+00  E= 1.939782D+01
              MO Center=  8.5D-03,  2.2D-04, -3.8D-03, r^2= 9.7D-01
   Bfn.  Coefficient  Atom+Function         Bfn.  Coefficient  Atom+Function  
  ----- ------------  ---------------      ----- ------------  ---------------
     9     17.955069  1 F  px                39     -8.147112  1 F  fxyy       
    11     -7.998721  1 F  pz                41     -7.952691  1 F  fxzz       
    36     -7.820109  1 F  fxxx              49     -5.637853  1 F  fxyy       
    51     -5.437866  1 F  fxzz              46     -5.301490  1 F  fxxx       
    12      4.520753  1 F  px                43      3.629420  1 F  fyyz       

 Vector   80  Occ=0.000000D+00  E= 2.247895D+01
              MO Center=  3.9D-02,  1.0D-03, -1.7D-02, r^2= 3.1D-01
   Bfn.  Coefficient  Atom+Function         Bfn.  Coefficient  Atom+Function  
  ----- ------------  ---------------      ----- ------------  ---------------
     4     11.597035  1 F  s                  2      7.407054  1 F  s          
    27     -4.506835  1 F  dyy               29     -4.483744  1 F  dzz        
    24     -4.390164  1 F  dxx               18     -3.394048  1 F  dxx        
    21     -3.371781  1 F  dyy               23     -3.376188  1 F  dzz        
     5      2.511051  1 F  s                 58     -2.352797  2 H  s          


 center of mass
 --------------
 x =   0.14024594 y =   0.00363256 z =  -0.06247752

 moments of inertia (a.u.)
 ------------------
           0.492234893552          -0.064026957739           1.101217894361
          -0.064026957739           2.962527028499           0.028523075583
           1.101217894361           0.028523075583           2.473608909519

     Multipole analysis of the density
     ---------------------------------

     L   x y z        total         alpha         beta         nuclear
     -   - - -        -----         -----         ----         -------
     0   0 0 0     -0.000000     -5.000000     -5.000000     10.000000

     1   1 0 0      0.632981     -0.783504     -0.783504      2.199989
     1   0 1 0      0.016395     -0.020294     -0.020294      0.056983
     1   0 0 1     -0.281984      0.349040      0.349040     -0.980063

     2   2 0 0     -2.837525     -2.823052     -2.823052      2.808579
     2   1 1 0      0.041688     -0.015529     -0.015529      0.072746
     2   1 0 1     -0.716998      0.267092      0.267092     -1.251181
     2   0 2 0     -4.445921     -2.223902     -2.223902      0.001884
     2   0 1 1     -0.018571      0.006918      0.006918     -0.032407
     2   0 0 2     -4.127588     -2.342486     -2.342486      0.557383

 Line search: 
     step= 1.00 grad=-4.3D-06 hess= 2.5D-06 energy=   -100.392856 mode=accept  
 new step= 1.00                   predicted energy=   -100.392856

          --------
          Step   2
          --------


                         Geometry "geometry" -> "geometry"
                         ---------------------------------

 Output coordinates in angstroms (scale by  1.889725989 to convert to a.u.)

  No.       Tag          Charge          X              Y              Z
 ---- ---------------- ---------- -------------- -------------- --------------
    1 F                    9.0000     0.03137268     0.00081260    -0.01397607
    2 H                    1.0000     0.88183005     0.02284063    -0.39284242

      Atomic Mass 
      ----------- 

      F                 18.998400
      H                  1.007825


 Effective nuclear repulsion energy (a.u.)       5.1139718039

            Nuclear Dipole moment (a.u.) 
            ----------------------------
        X                 Y               Z
 ---------------- ---------------- ----------------
     2.1999891464     0.0569827797    -0.9800630691


                                 NWChem DFT Module
                                 -----------------




 Summary of "ao basis" -> "ao basis" (cartesian)
 ------------------------------------------------------------------------------
       Tag                 Description            Shells   Functions and Types
 ---------------- ------------------------------  ------  ---------------------
 F                        aug-cc-pVTZ               14       55   5s4p3d2f
 H                        aug-cc-pVTZ                9       25   4s3p2d



  The DFT is already converged 

         Total DFT energy =   -100.392856254821


            General Information
            -------------------
          SCF calculation type: DFT
          Wavefunction type:  closed shell.
          No. of atoms     :     2
          No. of electrons :    10
           Alpha electrons :     5
            Beta electrons :     5
          Charge           :     0
          Spin multiplicity:     1
          Use of symmetry is: off; symmetry adaption is: off
          Maximum number of iterations: 200
          AO basis - number of functions:    80
                     number of shells:    23
          Convergence on energy requested:  1.00D-06
          Convergence on density requested:  1.00D-05
          Convergence on gradient requested:  5.00D-04

              XC Information
              --------------
          PerdewBurkeErnzerhof Exchange Functional  1.000          
            Perdew 1991 LDA Correlation Functional  1.000 local    
           PerdewBurkeErnz. Correlation Functional  1.000 non-local

             Grid Information
             ----------------
          Grid used for XC integration:  medium    
          Radial quadrature: Mura-Knowles        
          Angular quadrature: Lebedev. 
          Tag              B.-S. Rad. Rad. Pts. Rad. Cut. Ang. Pts.
          ---              ---------- --------- --------- ---------
          F                   0.50       49           9.0       434
          H                   0.35       45          10.0       434
          Grid pruning is: on 
          Number of quadrature shells:    94
          Spatial weights used:  Erf1

          Convergence Information
          -----------------------
          Convergence aids based upon iterative change in 
          total energy or number of iterations. 
          Levelshifting, if invoked, occurs when the 
          HOMO/LUMO gap drops below (HL_TOL):  1.00D-02
          DIIS, if invoked, will attempt to extrapolate 
          using up to (NFOCK): 10 stored Fock matrices.

                    Damping(40%)  Levelshifting(0.0)       DIIS
                  --------------- ------------------- ---------------
          dE  on:    start            ASAP                start   
          dE off:  200 iters        200 iters           200 iters 


      Screening Tolerance Information
      -------------------------------
          Density screening/tol_rho:  1.00D-10
          AO Gaussian exp screening on grid/accAOfunc:  14
          CD Gaussian exp screening on grid/accCDfunc:  20
          XC Gaussian exp screening on grid/accXCfunc:  20
          Schwarz screening/accCoul:  1.00D-08



                            NWChem DFT Gradient Module
                            --------------------------



  charge          =   0.00
  wavefunction    = closed shell



                         DFT ENERGY GRADIENTS

    atom               coordinates                        gradient
                 x          y          z           x          y          z
   1 F       0.059286   0.001536  -0.026411    0.000336   0.000009  -0.000150
   2 H       1.666417   0.043163  -0.742365   -0.000336  -0.000009   0.000150

                 ----------------------------------------
                 |  Time  |  1-e(secs)   |  2-e(secs)   |
                 ----------------------------------------
                 |  CPU   |       0.00   |       0.12   |
                 ----------------------------------------
                 |  WALL  |       0.00   |       0.12   |
                 ----------------------------------------

  Step       Energy      Delta E   Gmax     Grms     Xrms     Xmax   Walltime
  ---- ---------------- -------- -------- -------- -------- -------- --------
@    2    -100.39285625 -1.8D-06  0.00034  0.00021  0.00090  0.00143      3.0
                                     ok       ok       ok       ok  


      ----------------------
      Optimization converged
      ----------------------


  Step       Energy      Delta E   Gmax     Grms     Xrms     Xmax   Walltime
  ---- ---------------- -------- -------- -------- -------- -------- --------
@    2    -100.39285625 -1.8D-06  0.00034  0.00021  0.00090  0.00143      3.0
                                     ok       ok       ok       ok  



                         Geometry "geometry" -> "geometry"
                         ---------------------------------

 Output coordinates in angstroms (scale by  1.889725989 to convert to a.u.)

  No.       Tag          Charge          X              Y              Z
 ---- ---------------- ---------- -------------- -------------- --------------
    1 F                    9.0000     0.03137268     0.00081260    -0.01397607
    2 H                    1.0000     0.88183005     0.02284063    -0.39284242

      Atomic Mass 
      ----------- 

      F                 18.998400
      H                  1.007825


 Effective nuclear repulsion energy (a.u.)       5.1139718039

            Nuclear Dipole moment (a.u.) 
            ----------------------------
        X                 Y               Z
 ---------------- ---------------- ----------------
     2.1999891464     0.0569827797    -0.9800630691

 ==============================================================================
                                internuclear distances
 ------------------------------------------------------------------------------
       center one      |      center two      | atomic units |  angstroms
 ------------------------------------------------------------------------------
    2 H                |   1 F                |     1.75988  |     0.93129
 ------------------------------------------------------------------------------
                         number of included internuclear distances:          1
 ==============================================================================




 Task  times  cpu:        2.4s     wall:        2.8s


                                NWChem Input Module
                                -------------------


 Summary of allocated global arrays
-----------------------------------
  No active global arrays


MA_summarize_allocated_blocks: starting scan ...
MA_summarize_allocated_blocks: scan completed: 0 heap blocks, 0 stack blocks
MA usage statistics:

	allocation statistics:
					      heap	     stack
					      ----	     -----
	current number of blocks	         0	         0
	maximum number of blocks	        24	        53
	current total bytes		         0	         0
	maximum total bytes		 268657184	  42203720
	maximum total K-bytes		    268658	     42204
	maximum total M-bytes		       269	        43


                                     CITATION
                                     --------
                Please cite the following reference when publishing
                           results obtained with NWChem:

          E. Apra, E. J. Bylaska, W. A. de Jong, N. Govind, K. Kowalski,
       T. P. Straatsma, M. Valiev, H. J. J. van Dam, Y. Alexeev, J. Anchell,
       V. Anisimov, F. W. Aquino, R. Atta-Fynn, J. Autschbach, N. P. Bauman,
     J. C. Becca, D. E. Bernholdt, K. Bhaskaran-Nair, S. Bogatko, P. Borowski,
         J. Boschen, J. Brabec, A. Bruner, E. Cauet, Y. Chen, G. N. Chuev,
      C. J. Cramer, J. Daily, M. J. O. Deegan, T. H. Dunning Jr., M. Dupuis,
   K. G. Dyall, G. I. Fann, S. A. Fischer, A. Fonari, H. Fruchtl, L. Gagliardi,
      J. Garza, N. Gawande, S. Ghosh, K. Glaesemann, A. W. Gotz, J. Hammond,
       V. Helms, E. D. Hermes, K. Hirao, S. Hirata, M. Jacquelin, L. Jensen,
   B. G. Johnson, H. Jonsson, R. A. Kendall, M. Klemm, R. Kobayashi, V. Konkov,
      S. Krishnamoorthy, M. Krishnan, Z. Lin, R. D. Lins, R. J. Littlefield,
      A. J. Logsdail, K. Lopata, W. Ma, A. V. Marenich, J. Martin del Campo,
   D. Mejia-Rodriguez, J. E. Moore, J. M. Mullin, T. Nakajima, D. R. Nascimento,
    J. A. Nichols, P. J. Nichols, J. Nieplocha, A. Otero-de-la-Roza, B. Palmer,
    A. Panyala, T. Pirojsirikul, B. Peng, R. Peverati, J. Pittner, L. Pollack,
   R. M. Richard, P. Sadayappan, G. C. Schatz, W. A. Shelton, D. W. Silverstein,
   D. M. A. Smith, T. A. Soares, D. Song, M. Swart, H. L. Taylor, G. S. Thomas,
            V. Tipparaju, D. G. Truhlar, K. Tsemekhman, T. Van Voorhis,
      A. Vazquez-Mayagoitia, P. Verma, O. Villa, A. Vishnu, K. D. Vogiatzis,
        D. Wang, J. H. Weare, M. J. Williamson, T. L. Windus, K. Wolinski,
        A. T. Wong, Q. Wu, C. Yang, Q. Yu, M. Zacharias, Z. Zhang, Y. Zhao,
                                and R. J. Harrison
                        "NWChem: Past, present, and future
                         J. Chem. Phys. 152, 184102 (2020)
                               doi:10.1063/5.0004997

                                      AUTHORS
                                      -------
  E. Apra, E. J. Bylaska, N. Govind, K. Kowalski, M. Valiev, D. Mejia-Rodriguez,
       A. Kunitsa, N. P. Bauman, A. Panyala, W. A. de Jong, T. P. Straatsma,
   H. J. J. van Dam, D. Wang, T. L. Windus, J. Hammond, J. Autschbach, A. Woods,
    K. Bhaskaran-Nair, J. Brabec, K. Lopata, S. A. Fischer, S. Krishnamoorthy,
     M. Jacquelin, W. Ma, M. Klemm, O. Villa, Y. Chen, V. Anisimov, F. Aquino,
     S. Hirata, M. T. Hackler, E. Hermes, L. Jensen, J. E. Moore, J. C. Becca,
      V. Konjkov, T. Risthaus, M. Malagoli, A. Marenich, A. Otero-de-la-Roza,
        J. Mullin, P. Nichols, R. Peverati, J. Pittner, Y. Zhao, P.-D. Fan,
        A. Fonari, M. J. Williamson, R. J. Harrison, J. R. Rehr, M. Dupuis,
     D. Silverstein, D. M. A. Smith, J. Nieplocha, V. Tipparaju, M. Krishnan,
     B. E. Van Kuiken, A. Vazquez-Mayagoitia, M. Swart, Q. Wu, T. Van Voorhis,
     A. A. Auer, M. Nooijen, L. D. Crosby, E. Brown, G. Cisneros, G. I. Fann,
   H. Fruchtl, J. Garza, K. Hirao, R. A. Kendall, J. A. Nichols, K. Tsemekhman,
    K. Wolinski, J. Anchell, D. E. Bernholdt, P. Borowski, T. Clark, D. Clerc,
   H. Dachsel, M. J. O. Deegan, K. Dyall, D. Elwood, E. Glendening, M. Gutowski,
   A. C. Hess, J. Jaffe, B. G. Johnson, J. Ju, R. Kobayashi, R. Kutteh, Z. Lin,
   R. Littlefield, X. Long, B. Meng, T. Nakajima, S. Niu, L. Pollack, M. Rosing,
   K. Glaesemann, G. Sandrone, M. Stave, H. Taylor, G. Thomas, J. H. van Lenthe,
                               A. T. Wong, Z. Zhang.

 Total times  cpu:        2.5s     wall:        3.0s
