 argument  1 = m1e/mol.nwi
                                         
                                         


             Northwest Computational Chemistry Package (NWChem) 7.2.2
             --------------------------------------------------------


                    Environmental Molecular Sciences Laboratory
                       Pacific Northwest National Laboratory
                                Richland, WA 99352

                              Copyright (c) 1994-2022
                       Pacific Northwest National Laboratory
                            Battelle Memorial Institute

             NWChem is an open-source computational chemistry package
                        distributed under the terms of the
                      Educational Community License (ECL) 2.0
             A copy of the license is included with this distribution
                              in the LICENSE.TXT file

                                  ACKNOWLEDGMENT
                                  --------------

            This software and its documentation were developed at the
            EMSL at Pacific Northwest National Laboratory, a multiprogram
            national laboratory, operated for the U.S. Department of Energy
            by Battelle under Contract Number DE-AC05-76RL01830. Support
            for this work was provided by the Department of Energy Office
            of Biological and Environmental Research, Office of Basic
            Energy Sciences, and the Office of Advanced Scientific Computing.


           Job information
           ---------------

    hostname        = r005.ib.bridges2.psc.edu
    program         = nwchem
    date            = Tue Oct  1 14:29:30 2024

    compiled        = Mon_Mar_18_17:03:37_2024
    source          = /ocean/projects/pscstaff/mmadrid/nwchem-7.2.2
    nwchem branch   = 7.2.2
    nwchem revision = 74936fb9
    ga revision     = 5.8.0
    use scalapack   = F
    input           = m1e/mol.nwi
    prefix          = dft.
    data base       = .//dft.db
    status          = startup
    nproc           =       15
    time left       =     -1s



           Memory information
           ------------------

    heap     =   67108860 doubles =    512.0 Mbytes
    stack    =   67108865 doubles =    512.0 Mbytes
    global   =  134217728 doubles =   1024.0 Mbytes (distinct from heap & stack)
    total    =  268435453 doubles =   2048.0 Mbytes
    verify   = yes
    hardfail = no 


           Directory information
           ---------------------

  0 permanent = ./
  0 scratch   = /jet/home/hmt47/nwchem_scratch/




                                NWChem Input Module
                                -------------------


  library name resolved from: environment
  library file name is: </opt/packages/nwchem/nwchem7.2.2/share/nwchem/libraries/>
  


 Summary of "ao basis" -> "" (cartesian)
 ------------------------------------------------------------------------------
       Tag                 Description            Shells   Functions and Types
 ---------------- ------------------------------  ------  ---------------------
 *                        aug-cc-pVTZ                 on all atoms 


  pbe96 is a nonlocal functional; adding pw91lda local functional. 

 Scaling coordinates for geometry "geometry" by  1.889725989
 (inverse scale =  0.529177249)



                             Geometry "geometry" -> ""
                             -------------------------

 Output coordinates in angstroms (scale by  1.889725989 to convert to a.u.)

  No.       Tag          Charge          X              Y              Z
 ---- ---------------- ---------- -------------- -------------- --------------
    1 N                    7.0000     0.00000000     0.00000000     0.00000000
    2 O                    8.0000    -0.04379000     0.00899900     1.22682100
    3 O                    8.0000     0.58523000     0.97541700    -0.61452100
    4 O                    8.0000    -0.54304300    -0.99191800    -0.63406200

      Atomic Mass 
      ----------- 

      N                 14.003070
      O                 15.994910


 Effective nuclear repulsion energy (a.u.)     116.0369428370

            Nuclear Dipole moment (a.u.) 
            ----------------------------
        X                 Y               Z
 ---------------- ---------------- ----------------
    -0.0242338461    -0.1134137949    -0.3289937357


            XYZ format geometry
            -------------------
     4
 geometry
 N                     0.00000000     0.00000000     0.00000000
 O                    -0.04379000     0.00899900     1.22682100
 O                     0.58523000     0.97541700    -0.61452100
 O                    -0.54304300    -0.99191800    -0.63406200

 ==============================================================================
                                internuclear distances
 ------------------------------------------------------------------------------
       center one      |      center two      | atomic units |  angstroms
 ------------------------------------------------------------------------------
    2 O                |   1 N                |     2.31989  |     1.22764
    3 O                |   1 N                |     2.44321  |     1.29289
    4 O                |   1 N                |     2.44997  |     1.29647
 ------------------------------------------------------------------------------
                         number of included internuclear distances:          3
 ==============================================================================



 ==============================================================================
                                 internuclear angles
 ------------------------------------------------------------------------------
        center 1       |       center 2       |       center 3       |  degrees
 ------------------------------------------------------------------------------
    2 O                |   1 N                |   3 O                |   119.05
    2 O                |   1 N                |   4 O                |   118.65
    3 O                |   1 N                |   4 O                |   122.30
 ------------------------------------------------------------------------------
                            number of included internuclear angles:          3
 ==============================================================================





                           NWChem Geometry Optimization
                           ----------------------------


 maximum gradient threshold         (gmax) =   0.000450
 rms gradient threshold             (grms) =   0.000300
 maximum cartesian step threshold   (xmax) =   0.001800
 rms cartesian step threshold       (xrms) =   0.001200
 fixed trust radius                (trust) =   0.300000
 maximum step size to saddle      (sadstp) =   0.100000
 energy precision                  (eprec) =   5.0D-06
 maximum number of steps          (nptopt) =   40
 initial hessian option           (inhess) =    0
 line search option               (linopt) =    1
 hessian update option            (modupd) =    1
 saddle point option              (modsad) =    0
 initial eigen-mode to follow     (moddir) =    0
 initial variable to follow       (vardir) =    0
 follow first negative mode     (firstneg) =    T
 apply conjugacy                    (opcg) =    F
 source of zmatrix                         =           


          -------------------
          Energy Minimization
          -------------------


 Using diagonal initial Hessian 

          --------
          Step   0
          --------


                         Geometry "geometry" -> "geometry"
                         ---------------------------------

 Output coordinates in angstroms (scale by  1.889725989 to convert to a.u.)

  No.       Tag          Charge          X              Y              Z
 ---- ---------------- ---------- -------------- -------------- --------------
    1 N                    7.0000     0.00000000     0.00000000     0.00000000
    2 O                    8.0000    -0.04379000     0.00899900     1.22682100
    3 O                    8.0000     0.58523000     0.97541700    -0.61452100
    4 O                    8.0000    -0.54304300    -0.99191800    -0.63406200

      Atomic Mass 
      ----------- 

      N                 14.003070
      O                 15.994910


 Effective nuclear repulsion energy (a.u.)     116.0369428370

            Nuclear Dipole moment (a.u.) 
            ----------------------------
        X                 Y               Z
 ---------------- ---------------- ----------------
    -0.0242338461    -0.1134137949    -0.3289937357


                                 NWChem DFT Module
                                 -----------------


                      Basis "ao basis" -> "ao basis" (cartesian)
                      -----
  N (Nitrogen)
  ------------
            Exponent  Coefficients 
       -------------- ---------------------------------------------------------
  1 S  1.14200000E+04  0.000523
  1 S  1.71200000E+03  0.004045
  1 S  3.89300000E+02  0.020775
  1 S  1.10000000E+02  0.080727
  1 S  3.55700000E+01  0.233074
  1 S  1.25400000E+01  0.433501
  1 S  4.64400000E+00  0.347472
  1 S  5.11800000E-01 -0.008508

  2 S  1.14200000E+04 -0.000115
  2 S  1.71200000E+03 -0.000895
  2 S  3.89300000E+02 -0.004624
  2 S  1.10000000E+02 -0.018528
  2 S  3.55700000E+01 -0.057339
  2 S  1.25400000E+01 -0.132076
  2 S  4.64400000E+00 -0.172510
  2 S  5.11800000E-01  0.599944

  3 S  1.29300000E+00  1.000000

  4 S  1.78700000E-01  1.000000

  5 S  5.76000000E-02  1.000000

  6 P  2.66300000E+01  0.014670
  6 P  5.94800000E+00  0.091764
  6 P  1.74200000E+00  0.298683

  7 P  5.55000000E-01  1.000000

  8 P  1.72500000E-01  1.000000

  9 P  4.91000000E-02  1.000000

 10 D  1.65400000E+00  1.000000

 11 D  4.69000000E-01  1.000000

 12 D  1.51000000E-01  1.000000

 13 F  1.09300000E+00  1.000000

 14 F  3.64000000E-01  1.000000

  O (Oxygen)
  ----------
            Exponent  Coefficients 
       -------------- ---------------------------------------------------------
  1 S  1.53300000E+04  0.000508
  1 S  2.29900000E+03  0.003929
  1 S  5.22400000E+02  0.020243
  1 S  1.47300000E+02  0.079181
  1 S  4.75500000E+01  0.230687
  1 S  1.67600000E+01  0.433118
  1 S  6.20700000E+00  0.350260
  1 S  6.88200000E-01 -0.008154

  2 S  1.53300000E+04 -0.000115
  2 S  2.29900000E+03 -0.000895
  2 S  5.22400000E+02 -0.004636
  2 S  1.47300000E+02 -0.018724
  2 S  4.75500000E+01 -0.058463
  2 S  1.67600000E+01 -0.136463
  2 S  6.20700000E+00 -0.175740
  2 S  6.88200000E-01  0.603418

  3 S  1.75200000E+00  1.000000

  4 S  2.38400000E-01  1.000000

  5 S  7.37600000E-02  1.000000

  6 P  3.44600000E+01  0.015928
  6 P  7.74900000E+00  0.099740
  6 P  2.28000000E+00  0.310492

  7 P  7.15600000E-01  1.000000

  8 P  2.14000000E-01  1.000000

  9 P  5.97400000E-02  1.000000

 10 D  2.31400000E+00  1.000000

 11 D  6.45000000E-01  1.000000

 12 D  2.14000000E-01  1.000000

 13 F  1.42800000E+00  1.000000

 14 F  5.00000000E-01  1.000000



 Summary of "ao basis" -> "ao basis" (cartesian)
 ------------------------------------------------------------------------------
       Tag                 Description            Shells   Functions and Types
 ---------------- ------------------------------  ------  ---------------------
 N                        aug-cc-pVTZ               14       55   5s4p3d2f
 O                        aug-cc-pVTZ               14       55   5s4p3d2f




 Summary of "ao basis" -> "ao basis" (cartesian)
 ------------------------------------------------------------------------------
       Tag                 Description            Shells   Functions and Types
 ---------------- ------------------------------  ------  ---------------------
 N                        aug-cc-pVTZ               14       55   5s4p3d2f
 O                        aug-cc-pVTZ               14       55   5s4p3d2f


  Caching 1-el integrals 

            General Information
            -------------------
          SCF calculation type: DFT
          Wavefunction type:  closed shell.
          No. of atoms     :     4
          No. of electrons :    32
           Alpha electrons :    16
            Beta electrons :    16
          Charge           :    -1
          Spin multiplicity:     1
          Use of symmetry is: off; symmetry adaption is: off
          Maximum number of iterations: 200
          AO basis - number of functions:   220
                     number of shells:    56
          Convergence on energy requested:  1.00D-06
          Convergence on density requested:  1.00D-05
          Convergence on gradient requested:  5.00D-04

              XC Information
              --------------
          PerdewBurkeErnzerhof Exchange Functional  1.000          
            Perdew 1991 LDA Correlation Functional  1.000 local    
           PerdewBurkeErnz. Correlation Functional  1.000 non-local

             Grid Information
             ----------------
          Grid used for XC integration:  medium    
          Radial quadrature: Mura-Knowles        
          Angular quadrature: Lebedev. 
          Tag              B.-S. Rad. Rad. Pts. Rad. Cut. Ang. Pts.
          ---              ---------- --------- --------- ---------
          N                   0.65       49           9.0       434
          O                   0.60       49          10.0       434
          Grid pruning is: on 
          Number of quadrature shells:   196
          Spatial weights used:  Erf1

          Convergence Information
          -----------------------
          Convergence aids based upon iterative change in 
          total energy or number of iterations. 
          Levelshifting, if invoked, occurs when the 
          HOMO/LUMO gap drops below (HL_TOL):  1.00D-02
          DIIS, if invoked, will attempt to extrapolate 
          using up to (NFOCK): 10 stored Fock matrices.

                    Damping(40%)  Levelshifting(0.0)       DIIS
                  --------------- ------------------- ---------------
          dE  on:    start            0.00D+00            start   
          dE off:  200 iters          0.00D+00          200 iters 


      Screening Tolerance Information
      -------------------------------
          Density screening/tol_rho:  1.00D-10
          AO Gaussian exp screening on grid/accAOfunc:  14
          CD Gaussian exp screening on grid/accCDfunc:  20
          XC Gaussian exp screening on grid/accXCfunc:  20
          Schwarz screening/accCoul:  1.00D-08


 Forcing the number of linearly dependent vectors to be  0

      Superposition of Atomic Density Guess
      -------------------------------------

 Sum of atomic energies:        -278.65395960
   Time after variat. SCF:      0.3
   Time prior to 1st pass:      0.4

 Grid_pts file          = /jet/home/hmt47/nwchem_scratch//dft.gridpts.00
 Record size in doubles =  12289        No. of grid_pts per rec  =   3070
 Max. records in memory =      4        Max. recs in file   =  67550051

 Grid integrated density:      30.999998796072
 Requested integration accuracy:   0.10E-05

           Memory utilization after 1st SCF pass: 
           Heap Space remaining (MW):       33.50            33500964
          Stack Space remaining (MW):       67.11            67107676

   convergence    iter        energy       DeltaE   RMS-Dens  Diis-err    time
 ---------------- ----- ----------------- --------- --------- ---------  ------
 d=40,ls=0.0,diis     1   -280.7966761349 -3.97D+02  1.05D-02  3.30D+01     0.6
 Grid integrated density:      31.599998817684
 Requested integration accuracy:   0.10E-05
 d=40,ls=0.0,diis     2   -280.4318802258  3.65D-01  1.35D-02  6.08D+00     1.5
 Grid integrated density:      31.839998625308
 Requested integration accuracy:   0.10E-05
 d=40,ls=0.0,diis     3   -279.9936913057  4.38D-01  3.39D-03  3.11D+00     2.5
 Grid integrated density:      31.935998726831
 Requested integration accuracy:   0.10E-05
 d=40,ls=0.0,diis     4   -280.1636517795 -1.70D-01  1.69D-03  6.54D-01     3.5
 Grid integrated density:      31.974398700782
 Requested integration accuracy:   0.10E-05
 d=40,ls=0.0,diis     5   -280.2015650786 -3.79D-02  8.33D-04  1.88D-01     4.5
 Grid integrated density:      31.989758967217
 Requested integration accuracy:   0.10E-05
  Resetting Diis
 d=40,ls=0.0,diis     6   -280.2169367852 -1.54D-02  3.99D-04  5.36D-02     5.5
 Grid integrated density:      31.995902977423
 Requested integration accuracy:   0.10E-05
 d=40,ls=0.0,diis     7   -280.2225831337 -5.65D-03  7.97D-04  1.32D-02     6.5
 Grid integrated density:      31.998360601955
 Requested integration accuracy:   0.10E-05
 d=40,ls=0.0,diis     8   -280.2223003638  2.83D-04  3.04D-04  1.90D-02     7.5
 Grid integrated density:      31.999343630718
 Requested integration accuracy:   0.10E-05
 d=40,ls=0.0,diis     9   -280.2245283034 -2.23D-03  1.13D-04  3.21D-03     8.5
 Grid integrated density:      31.999736845957
 Requested integration accuracy:   0.10E-05
 d=40,ls=0.0,diis    10   -280.2251916904 -6.63D-04  5.81D-05  5.85D-04     9.5
 Grid integrated density:      31.999894131086
 Requested integration accuracy:   0.10E-05
 d=40,ls=0.0,diis    11   -280.2254312818 -2.40D-04  2.32D-05  1.12D-04    10.5
 Grid integrated density:      31.999957045065
 Requested integration accuracy:   0.10E-05
 d=40,ls=0.0,diis    12   -280.2255225386 -9.13D-05  8.87D-06  1.74D-05    11.5
 d=40,ls=0.0,diis    13   -280.2255576731 -3.51D-05  3.19D-06  2.72D-06    12.5
 d=40,ls=0.0,diis    14   -280.2255715243 -1.39D-05  1.39D-06  4.45D-07    13.5
 d=40,ls=0.0,diis    15   -280.2255770335 -5.51D-06  5.73D-07  7.21D-08    14.4
 d=40,ls=0.0,diis    16   -280.2255792318 -2.20D-06  2.29D-07  1.16D-08    15.4
 d=40,ls=0.0,diis    17   -280.2255801103 -8.78D-07  9.19D-08  1.85D-09    16.4


         Total DFT energy =     -280.225580110310
      One electron energy =     -622.763661536578
           Coulomb energy =      258.999303570758
    Exchange-Corr. energy =      -32.498164981505
 Nuclear repulsion energy =      116.036942837014

 Numeric. integr. density =       31.999998558299

     Total iterative time =     16.1s



                       DFT Final Molecular Orbital Analysis
                       ------------------------------------

 Vector    1  Occ=2.000000D+00  E=-1.855242D+01
              MO Center= -4.4D-02,  9.0D-03,  1.2D+00, r^2= 1.5D-02
   Bfn.  Coefficient  Atom+Function         Bfn.  Coefficient  Atom+Function  
  ----- ------------  ---------------      ----- ------------  ---------------
    56      0.981379  2 O  s                  4      0.091131  1 N  s          
    58      0.065107  2 O  s                 59     -0.045492  2 O  s          
    60     -0.041122  2 O  s                114     -0.028719  3 O  s          
   169     -0.028323  4 O  s                 14     -0.026972  1 N  pz         

 Vector    2  Occ=2.000000D+00  E=-1.854554D+01
              MO Center=  5.8D-01,  9.7D-01, -6.1D-01, r^2= 1.6D-02
   Bfn.  Coefficient  Atom+Function         Bfn.  Coefficient  Atom+Function  
  ----- ------------  ---------------      ----- ------------  ---------------
   111      0.979437  3 O  s                  4      0.069913  1 N  s          
   113      0.064356  3 O  s                115     -0.042639  3 O  s          
   114     -0.035911  3 O  s                 59     -0.031991  2 O  s          
    69      0.029240  2 O  pz                13     -0.025648  1 N  py         

 Vector    3  Occ=2.000000D+00  E=-1.854443D+01
              MO Center= -5.4D-01, -9.9D-01, -6.3D-01, r^2= 1.6D-02
   Bfn.  Coefficient  Atom+Function         Bfn.  Coefficient  Atom+Function  
  ----- ------------  ---------------      ----- ------------  ---------------
   166      0.979296  4 O  s                  4      0.067070  1 N  s          
   168      0.064277  4 O  s                170     -0.042820  4 O  s          
   169     -0.035113  4 O  s                 59     -0.030776  2 O  s          
    69      0.028085  2 O  pz                13      0.027027  1 N  py         

 Vector    4  Occ=2.000000D+00  E=-1.401324D+01
              MO Center= -1.3D-07,  7.6D-07,  1.5D-05, r^2= 2.0D-02
   Bfn.  Coefficient  Atom+Function         Bfn.  Coefficient  Atom+Function  
  ----- ------------  ---------------      ----- ------------  ---------------
     1      0.997838  1 N  s                  4     -0.167650  1 N  s          
     3      0.060119  1 N  s                  2      0.053075  1 N  s          
    69     -0.046912  2 O  pz                59      0.030894  2 O  s          
   123     -0.028876  3 O  py               178      0.028277  4 O  py         
    35     -0.027780  1 N  dzz              114      0.025762  3 O  s          

 Vector    5  Occ=2.000000D+00  E=-9.192091D-01
              MO Center= -3.6D-03,  4.6D-03,  1.6D-01, r^2= 8.9D-01
   Bfn.  Coefficient  Atom+Function         Bfn.  Coefficient  Atom+Function  
  ----- ------------  ---------------      ----- ------------  ---------------
     2      0.356009  1 N  s                 57      0.233599  2 O  s          
     4      0.219357  1 N  s                112      0.161450  3 O  s          
   167      0.158561  4 O  s                 59      0.125804  2 O  s          
     3      0.090880  1 N  s                 63     -0.077876  2 O  pz         
   114      0.077071  3 O  s                169      0.075154  4 O  s          

 Vector    6  Occ=2.000000D+00  E=-7.196916D-01
              MO Center=  2.9D-02,  6.3D-02,  2.0D-01, r^2= 1.3D+00
   Bfn.  Coefficient  Atom+Function         Bfn.  Coefficient  Atom+Function  
  ----- ------------  ---------------      ----- ------------  ---------------
    57      0.334471  2 O  s                 59      0.274853  2 O  s          
   112     -0.234403  3 O  s                167     -0.188872  4 O  s          
     8      0.182529  1 N  pz               114     -0.165409  3 O  s          
   169     -0.130809  4 O  s                 11      0.129872  1 N  pz         
     4     -0.091445  1 N  s                 58      0.089836  2 O  s          

 Vector    7  Occ=2.000000D+00  E=-7.037091D-01
              MO Center= -2.6D-02, -7.4D-02, -4.0D-01, r^2= 1.2D+00
   Bfn.  Coefficient  Atom+Function         Bfn.  Coefficient  Atom+Function  
  ----- ------------  ---------------      ----- ------------  ---------------
   167      0.335146  4 O  s                112     -0.302875  3 O  s          
   169      0.251057  4 O  s                114     -0.229626  3 O  s          
     7     -0.153668  1 N  py                10     -0.109805  1 N  py         
   168      0.091131  4 O  s                  6     -0.087612  1 N  px         
   113     -0.082267  3 O  s                170      0.063646  4 O  s          

 Vector    8  Occ=2.000000D+00  E=-3.295483D-01
              MO Center=  7.6D-04,  4.2D-03,  5.6D-02, r^2= 2.5D+00
   Bfn.  Coefficient  Atom+Function         Bfn.  Coefficient  Atom+Function  
  ----- ------------  ---------------      ----- ------------  ---------------
     4      0.647791  1 N  s                 59     -0.358439  2 O  s          
   114     -0.322160  3 O  s                169     -0.318763  4 O  s          
     2      0.297832  1 N  s                 57     -0.236981  2 O  s          
   112     -0.229229  3 O  s                167     -0.227665  4 O  s          
    66     -0.128257  2 O  pz                63     -0.123025  2 O  pz         

 Vector    9  Occ=2.000000D+00  E=-2.657716D-01
              MO Center= -1.7D-03,  3.0D-03,  8.4D-02, r^2= 1.2D+00
   Bfn.  Coefficient  Atom+Function         Bfn.  Coefficient  Atom+Function  
  ----- ------------  ---------------      ----- ------------  ---------------
     6      0.252250  1 N  px                 9      0.239626  1 N  px         
     7     -0.144766  1 N  py                10     -0.137522  1 N  py         
    61      0.131238  2 O  px                64      0.128866  2 O  px         
    12      0.112869  1 N  px               116      0.101642  3 O  px         
   119      0.100054  3 O  px               171      0.100223  4 O  px         

 Vector   10  Occ=2.000000D+00  E=-2.446666D-01
              MO Center=  6.9D-02,  8.9D-02, -4.4D-01, r^2= 2.1D+00
   Bfn.  Coefficient  Atom+Function         Bfn.  Coefficient  Atom+Function  
  ----- ------------  ---------------      ----- ------------  ---------------
   112     -0.196269  3 O  s                  7      0.191868  1 N  py         
   114     -0.190634  3 O  s                167      0.174268  4 O  s          
   169      0.169254  4 O  s                 10      0.165329  1 N  py         
   117     -0.124182  3 O  py               173     -0.122785  4 O  pz         
   118      0.119778  3 O  pz               176     -0.116218  4 O  pz         

 Vector   11  Occ=2.000000D+00  E=-2.435548D-01
              MO Center= -7.3D-02, -9.2D-02,  5.1D-01, r^2= 2.0D+00
   Bfn.  Coefficient  Atom+Function         Bfn.  Coefficient  Atom+Function  
  ----- ------------  ---------------      ----- ------------  ---------------
     8      0.219774  1 N  pz                63     -0.218997  2 O  pz         
    57     -0.210268  2 O  s                 66     -0.198728  2 O  pz         
    11      0.189996  1 N  pz                59     -0.187109  2 O  s          
    69     -0.133263  2 O  pz               169      0.133402  4 O  s          
   167      0.130434  4 O  s                172     -0.119454  4 O  py         

 Vector   12  Occ=2.000000D+00  E=-6.287660D-02
              MO Center= -1.9D-02, -2.0D-03,  4.5D-01, r^2= 2.1D+00
   Bfn.  Coefficient  Atom+Function         Bfn.  Coefficient  Atom+Function  
  ----- ------------  ---------------      ----- ------------  ---------------
    62      0.245030  2 O  py                65      0.243634  2 O  py         
   117      0.150431  3 O  py               172      0.150814  4 O  py         
    68      0.147162  2 O  py               120      0.141761  3 O  py         
   175      0.142199  4 O  py                61      0.140450  2 O  px         
    64      0.139653  2 O  px               123      0.106984  3 O  py         

 Vector   13  Occ=2.000000D+00  E=-5.237649D-02
              MO Center=  2.6D-02,  4.9D-03, -5.2D-01, r^2= 2.1D+00
   Bfn.  Coefficient  Atom+Function         Bfn.  Coefficient  Atom+Function  
  ----- ------------  ---------------      ----- ------------  ---------------
   118      0.249771  3 O  pz               121      0.245828  3 O  pz         
   173      0.245365  4 O  pz               176      0.241153  4 O  pz         
   124      0.160072  3 O  pz               179      0.156832  4 O  pz         
    69      0.134470  2 O  pz                63      0.118940  2 O  pz         
    66      0.103479  2 O  pz                 4      0.094139  1 N  s          

 Vector   14  Occ=2.000000D+00  E=-5.076625D-02
              MO Center=  3.2D-02,  9.0D-02,  4.6D-01, r^2= 2.0D+00
   Bfn.  Coefficient  Atom+Function         Bfn.  Coefficient  Atom+Function  
  ----- ------------  ---------------      ----- ------------  ---------------
    61      0.263535  2 O  px                64      0.264148  2 O  px         
    67      0.185221  2 O  px               116     -0.166256  3 O  px         
   119     -0.166470  3 O  px                62     -0.151133  2 O  py         
    65     -0.151487  2 O  py               171     -0.130470  4 O  px         
   174     -0.130561  4 O  px               122     -0.118181  3 O  px         

 Vector   15  Occ=2.000000D+00  E=-4.399423D-02
              MO Center= -3.3D-02, -1.0D-01, -5.9D-01, r^2= 2.0D+00
   Bfn.  Coefficient  Atom+Function         Bfn.  Coefficient  Atom+Function  
  ----- ------------  ---------------      ----- ------------  ---------------
   171      0.248281  4 O  px               174      0.248677  4 O  px         
   116     -0.225210  3 O  px               119     -0.225635  3 O  px         
   177      0.175582  4 O  px               122     -0.158920  3 O  px         
   172     -0.142076  4 O  py               175     -0.142329  4 O  py         
   117      0.129673  3 O  py               120      0.129892  3 O  py         

 Vector   16  Occ=2.000000D+00  E= 1.238279D-02
              MO Center= -6.9D-03, -1.8D-02, -7.6D-02, r^2= 2.3D+00
   Bfn.  Coefficient  Atom+Function         Bfn.  Coefficient  Atom+Function  
  ----- ------------  ---------------      ----- ------------  ---------------
   176      0.221728  4 O  pz               121     -0.218862  3 O  pz         
   173      0.219469  4 O  pz               118     -0.216435  3 O  pz         
    65      0.203930  2 O  py                62      0.200390  2 O  py         
   179      0.173199  4 O  pz               124     -0.170956  3 O  pz         
    68      0.160364  2 O  py                64      0.116906  2 O  px         

 Vector   17  Occ=0.000000D+00  E= 1.354058D-01
              MO Center=  5.4D-04, -5.8D-04,  4.7D-02, r^2= 2.4D+00
   Bfn.  Coefficient  Atom+Function         Bfn.  Coefficient  Atom+Function  
  ----- ------------  ---------------      ----- ------------  ---------------
    12      0.434693  1 N  px                 9      0.286480  1 N  px         
     6      0.275247  1 N  px                13     -0.249488  1 N  py         
    70     -0.218096  2 O  px               125     -0.193875  3 O  px         
   180     -0.190117  4 O  px                15      0.173128  1 N  px         
    67     -0.170158  2 O  px                10     -0.164410  1 N  py         

 Vector   18  Occ=0.000000D+00  E= 1.555118D-01
              MO Center=  2.3D-03,  1.2D-02,  6.0D-02, r^2= 1.3D+01
   Bfn.  Coefficient  Atom+Function         Bfn.  Coefficient  Atom+Function  
  ----- ------------  ---------------      ----- ------------  ---------------
     5     11.263502  1 N  s                  4      6.376684  1 N  s          
    60     -4.468398  2 O  s                115     -4.260515  3 O  s          
   170     -4.202614  4 O  s                 59     -1.798454  2 O  s          
   114     -1.553491  3 O  s                169     -1.531285  4 O  s          
    69      1.388402  2 O  pz                72      1.365928  2 O  pz         

 Vector   19  Occ=0.000000D+00  E= 1.836655D-01
              MO Center=  7.0D-02,  7.7D-02, -6.3D-01, r^2= 1.5D+01
   Bfn.  Coefficient  Atom+Function         Bfn.  Coefficient  Atom+Function  
  ----- ------------  ---------------      ----- ------------  ---------------
   115      5.560936  3 O  s                170     -5.113011  4 O  s          
    16     -3.658980  1 N  py                15     -2.110744  1 N  px         
    13     -1.107590  1 N  py               182     -0.867184  4 O  pz         
   127      0.829488  3 O  pz               126     -0.814073  3 O  py         
   181     -0.720213  4 O  py                12     -0.638919  1 N  px         

 Vector   20  Occ=0.000000D+00  E= 1.839904D-01
              MO Center= -7.5D-02, -8.6D-02,  6.4D-01, r^2= 1.5D+01
   Bfn.  Coefficient  Atom+Function         Bfn.  Coefficient  Atom+Function  
  ----- ------------  ---------------      ----- ------------  ---------------
    60      6.265082  2 O  s                 17     -4.052817  1 N  pz         
   170     -3.537444  4 O  s                115     -2.724338  3 O  s          
    72     -1.359119  2 O  pz                14     -1.212388  1 N  pz         
   181     -0.873263  4 O  py               126      0.759420  3 O  py         
    69     -0.679812  2 O  pz               180     -0.503100  4 O  px         

 Vector   21  Occ=0.000000D+00  E= 2.219131D-01
              MO Center= -1.0D-04,  4.1D-03, -2.0D-02, r^2= 9.1D+00
   Bfn.  Coefficient  Atom+Function         Bfn.  Coefficient  Atom+Function  
  ----- ------------  ---------------      ----- ------------  ---------------
    15      2.229222  1 N  px                16     -1.279383  1 N  py         
    12     -0.799347  1 N  px                70     -0.478232  2 O  px         
    13      0.458787  1 N  py               180     -0.460619  4 O  px         
   125     -0.457146  3 O  px                71      0.274430  2 O  py         
    46      0.268308  1 N  fxxx              49      0.267908  1 N  fxyy       

 Vector   22  Occ=0.000000D+00  E= 2.548703D-01
              MO Center=  1.0D-02,  4.4D-02,  3.9D-01, r^2= 1.2D+01
   Bfn.  Coefficient  Atom+Function         Bfn.  Coefficient  Atom+Function  
  ----- ------------  ---------------      ----- ------------  ---------------
    34      4.334275  1 N  dyz               32      2.494505  1 N  dxz        
   169     -1.779290  4 O  s                114      1.622802  3 O  s          
    68     -1.481540  2 O  py                71     -1.024630  2 O  py         
    89      0.944553  2 O  dyz               13     -0.860709  1 N  py         
    67     -0.849466  2 O  px               123     -0.846682  3 O  py         

 Vector   23  Occ=0.000000D+00  E= 2.567702D-01
              MO Center=  7.0D-04, -4.0D-02, -5.7D-01, r^2= 1.1D+01
   Bfn.  Coefficient  Atom+Function         Bfn.  Coefficient  Atom+Function  
  ----- ------------  ---------------      ----- ------------  ---------------
    35      2.553896  1 N  dzz               59     -2.331347  2 O  s          
    31     -2.170841  1 N  dxy               33     -1.763895  1 N  dyy        
    14      1.395777  1 N  pz               179      1.259426  4 O  pz         
   124      1.241121  3 O  pz               114      1.209763  3 O  s          
   169      0.983380  4 O  s                 69      0.762932  2 O  pz         

 Vector   24  Occ=0.000000D+00  E= 2.614086D-01
              MO Center= -8.2D-03, -1.2D-02,  1.4D-01, r^2= 1.1D+01
   Bfn.  Coefficient  Atom+Function         Bfn.  Coefficient  Atom+Function  
  ----- ------------  ---------------      ----- ------------  ---------------
     4     12.380010  1 N  s                 59     -3.159316  2 O  s          
   114     -2.922205  3 O  s                 69      2.860935  2 O  pz         
   169     -2.830120  4 O  s                 35      2.689187  1 N  dzz        
    33      2.586009  1 N  dyy                5     -2.283854  1 N  s          
   123      1.972902  3 O  py                31      1.948704  1 N  dxy        

 Vector   25  Occ=0.000000D+00  E= 2.711232D-01
              MO Center=  1.2D-01,  2.5D-01,  6.5D-01, r^2= 1.1D+01
   Bfn.  Coefficient  Atom+Function         Bfn.  Coefficient  Atom+Function  
  ----- ------------  ---------------      ----- ------------  ---------------
    70      1.524583  2 O  px               125     -0.949468  3 O  px         
    32     -0.925669  1 N  dxz               71     -0.875568  2 O  py         
    34      0.542000  1 N  dyz              126      0.544646  3 O  py         
    87     -0.451520  2 O  dxz              180     -0.438294  4 O  px         
    89      0.258558  2 O  dyz              181      0.250853  4 O  py         

 Vector   26  Occ=0.000000D+00  E= 2.714707D-01
              MO Center= -1.2D-01, -2.6D-01, -6.4D-01, r^2= 1.1D+01
   Bfn.  Coefficient  Atom+Function         Bfn.  Coefficient  Atom+Function  
  ----- ------------  ---------------      ----- ------------  ---------------
   180      1.369647  4 O  px               125     -1.087233  3 O  px         
   181     -0.788161  4 O  py               126      0.621726  3 O  py         
    31      0.548175  1 N  dxy               33     -0.464311  1 N  dyy        
    30      0.456948  1 N  dxx               70     -0.321412  2 O  px         
   197      0.230932  4 O  dxz               32      0.219154  1 N  dxz        

 Vector   27  Occ=0.000000D+00  E= 3.185980D-01
              MO Center=  1.1D-02,  6.6D-03, -1.6D-01, r^2= 1.3D+01
   Bfn.  Coefficient  Atom+Function         Bfn.  Coefficient  Atom+Function  
  ----- ------------  ---------------      ----- ------------  ---------------
   127      2.043209  3 O  pz               182     -1.962223  4 O  pz         
    71     -1.790637  2 O  py               126      1.169147  3 O  py         
   181      1.107806  4 O  py                70     -1.028332  2 O  px         
   180      0.715438  4 O  px                16     -0.640153  1 N  py         
    54      0.604693  1 N  fyzz             125      0.588240  3 O  px         

 Vector   28  Occ=0.000000D+00  E= 3.229765D-01
              MO Center=  3.4D-03, -1.3D-02, -3.2D-01, r^2= 5.7D+00
   Bfn.  Coefficient  Atom+Function         Bfn.  Coefficient  Atom+Function  
  ----- ------------  ---------------      ----- ------------  ---------------
     5     11.965601  1 N  s                  4      6.211685  1 N  s          
   115     -5.966066  3 O  s                170     -5.921029  4 O  s          
    60     -4.345665  2 O  s                 59     -2.772606  2 O  s          
    17     -2.483000  1 N  pz                69      1.876019  2 O  pz         
    35      1.726479  1 N  dzz               72      1.685782  2 O  pz         

 Vector   29  Occ=0.000000D+00  E= 3.278536D-01
              MO Center=  8.7D-04,  5.0D-03,  7.9D-02, r^2= 1.3D+01
   Bfn.  Coefficient  Atom+Function         Bfn.  Coefficient  Atom+Function  
  ----- ------------  ---------------      ----- ------------  ---------------
    16      8.903326  1 N  py                15      5.126903  1 N  px         
    13     -4.166194  1 N  py                71     -3.780338  2 O  py         
   114      3.603466  3 O  s                115     -3.601584  3 O  s          
   170      3.600818  4 O  s                169     -3.304795  4 O  s          
    34      2.886523  1 N  dyz              126     -2.623540  3 O  py         

 Vector   30  Occ=0.000000D+00  E= 3.291375D-01
              MO Center= -1.3D-02, -1.7D-02,  8.5D-02, r^2= 1.3D+01
   Bfn.  Coefficient  Atom+Function         Bfn.  Coefficient  Atom+Function  
  ----- ------------  ---------------      ----- ------------  ---------------
    17     10.061381  1 N  pz                60     -5.539234  2 O  s          
    14     -4.976326  1 N  pz                59      3.996713  2 O  s          
   127     -3.869309  3 O  pz               182     -3.873183  4 O  pz         
     5      3.833421  1 N  s                 72     -2.805674  2 O  pz         
    69     -2.557605  2 O  pz               169     -2.430260  4 O  s          

 Vector   31  Occ=0.000000D+00  E= 3.374975D-01
              MO Center=  1.3D-03, -1.9D-03, -5.0D-02, r^2= 1.3D+01
   Bfn.  Coefficient  Atom+Function         Bfn.  Coefficient  Atom+Function  
  ----- ------------  ---------------      ----- ------------  ---------------
    15      6.385462  1 N  px                16     -3.664893  1 N  py         
    70     -2.762087  2 O  px               125     -2.738185  3 O  px         
   180     -2.726999  4 O  px                71      1.585239  2 O  py         
   126      1.574650  3 O  py               181      1.561993  4 O  py         
   122      0.458581  3 O  px               177      0.460713  4 O  px         

 Vector   32  Occ=0.000000D+00  E= 3.777921D-01
              MO Center=  2.1D-03,  3.9D-03,  1.1D-01, r^2= 7.9D+00
   Bfn.  Coefficient  Atom+Function         Bfn.  Coefficient  Atom+Function  
  ----- ------------  ---------------      ----- ------------  ---------------
     5     17.596237  1 N  s                 60     -9.377751  2 O  s          
   115     -8.318542  3 O  s                170     -8.185373  4 O  s          
     4     -4.122877  1 N  s                 72      1.984499  2 O  pz         
    59      1.807250  2 O  s                 90      1.243010  2 O  dzz        
   114      1.193691  3 O  s                169      1.172985  4 O  s          

 Vector   33  Occ=0.000000D+00  E= 4.148117D-01
              MO Center= -1.1D-01, -1.7D-01,  4.9D-01, r^2= 1.1D+01
   Bfn.  Coefficient  Atom+Function         Bfn.  Coefficient  Atom+Function  
  ----- ------------  ---------------      ----- ------------  ---------------
    60     11.860942  2 O  s                170     -7.920191  4 O  s          
    17     -5.765663  1 N  pz               115     -4.818127  3 O  s          
    72     -1.696350  2 O  pz                 4     -1.424082  1 N  s          
   181     -1.369997  4 O  py                14     -1.337214  1 N  pz         
   169      1.144928  4 O  s                 69     -1.117681  2 O  pz         

 Vector   34  Occ=0.000000D+00  E= 4.150590D-01
              MO Center=  1.1D-01,  1.6D-01, -5.8D-01, r^2= 1.1D+01
   Bfn.  Coefficient  Atom+Function         Bfn.  Coefficient  Atom+Function  
  ----- ------------  ---------------      ----- ------------  ---------------
   115     11.129290  3 O  s                170     -9.236493  4 O  s          
    16     -4.990285  1 N  py                15     -2.897685  1 N  px         
    60     -1.880823  2 O  s                 13     -1.539163  1 N  py         
   182     -1.322435  4 O  pz                34     -1.241744  1 N  dyz        
   127      1.175772  3 O  pz               126     -1.142797  3 O  py         

 Vector   35  Occ=0.000000D+00  E= 4.804833D-01
              MO Center=  2.9D-03,  1.2D-03, -4.4D-02, r^2= 3.2D+00
   Bfn.  Coefficient  Atom+Function         Bfn.  Coefficient  Atom+Function  
  ----- ------------  ---------------      ----- ------------  ---------------
   170     -3.156244  4 O  s                115      3.017778  3 O  s          
    34      2.938178  1 N  dyz               16     -1.899471  1 N  py         
    32      1.682048  1 N  dxz               15     -1.086389  1 N  px         
    68     -1.029965  2 O  py                89      0.893770  2 O  dyz        
   169     -0.898049  4 O  s                114      0.676769  3 O  s          

 Vector   36  Occ=0.000000D+00  E= 5.088596D-01
              MO Center=  6.9D-03,  1.1D-02, -1.9D-02, r^2= 3.8D+00
   Bfn.  Coefficient  Atom+Function         Bfn.  Coefficient  Atom+Function  
  ----- ------------  ---------------      ----- ------------  ---------------
     4      9.713678  1 N  s                 60      2.708692  2 O  s          
    31      2.529793  1 N  dxy              114     -2.450752  3 O  s          
    59     -2.433783  2 O  s                169     -2.404484  4 O  s          
     5      2.352699  1 N  s                115     -1.926723  3 O  s          
    69      1.840977  2 O  pz               170     -1.754403  4 O  s          

 Vector   37  Occ=0.000000D+00  E= 5.337941D-01
              MO Center= -1.4D-02,  1.3D-05,  3.1D-01, r^2= 5.6D+00
   Bfn.  Coefficient  Atom+Function         Bfn.  Coefficient  Atom+Function  
  ----- ------------  ---------------      ----- ------------  ---------------
     4      4.562737  1 N  s                 33      4.080961  1 N  dyy        
    30      3.296551  1 N  dxx               35      3.006674  1 N  dzz        
   115     -1.704644  3 O  s                170     -1.653506  4 O  s          
    69      1.607871  2 O  pz               114     -1.507518  3 O  s          
     5     -1.426035  1 N  s                169     -1.401422  4 O  s          

 Vector   38  Occ=0.000000D+00  E= 5.883319D-01
              MO Center=  1.3D-01,  2.5D-01,  3.3D-01, r^2= 4.2D+00
   Bfn.  Coefficient  Atom+Function         Bfn.  Coefficient  Atom+Function  
  ----- ------------  ---------------      ----- ------------  ---------------
    31      1.997298  1 N  dxy               33     -1.697475  1 N  dyy        
    30      1.634689  1 N  dxx              177      1.628527  4 O  px         
    32      1.363567  1 N  dxz              122     -1.086366  3 O  px         
   178     -0.908811  4 O  py                34     -0.668575  1 N  dyz        
    67     -0.656414  2 O  px               123      0.637556  3 O  py         

 Vector   39  Occ=0.000000D+00  E= 5.892410D-01
              MO Center= -1.2D-01, -2.4D-01, -4.1D-01, r^2= 4.2D+00
   Bfn.  Coefficient  Atom+Function         Bfn.  Coefficient  Atom+Function  
  ----- ------------  ---------------      ----- ------------  ---------------
    32      3.399821  1 N  dxz               34     -1.997048  1 N  dyz        
    67     -1.761937  2 O  px               122      1.222725  3 O  px         
    87      1.055142  2 O  dxz               68      1.007329  2 O  py         
    30     -0.765781  1 N  dxx              123     -0.723320  3 O  py         
    31     -0.668290  1 N  dxy               70     -0.658916  2 O  px         

 Vector   40  Occ=0.000000D+00  E= 6.036314D-01
              MO Center=  1.2D-02,  1.3D-02, -1.5D-01, r^2= 7.4D+00
   Bfn.  Coefficient  Atom+Function         Bfn.  Coefficient  Atom+Function  
  ----- ------------  ---------------      ----- ------------  ---------------
     4     49.781306  1 N  s                 59    -15.984599  2 O  s          
    69     11.829609  2 O  pz               114    -11.290595  3 O  s          
   169    -11.261688  4 O  s                 35      8.449559  1 N  dzz        
   178     -7.712275  4 O  py               123      7.623645  3 O  py         
     5      6.910563  1 N  s                 31      6.266191  1 N  dxy        

 Vector   41  Occ=0.000000D+00  E= 6.061046D-01
              MO Center= -4.9D-03, -9.7D-03,  8.7D-02, r^2= 4.8D+00
   Bfn.  Coefficient  Atom+Function         Bfn.  Coefficient  Atom+Function  
  ----- ------------  ---------------      ----- ------------  ---------------
    12      4.162203  1 N  px                13     -2.389830  1 N  py         
    46     -1.198728  1 N  fxxx              49     -1.197971  1 N  fxyy       
     4      1.123383  1 N  s                 51     -1.077345  1 N  fxzz       
    47      0.755738  1 N  fxxy              52      0.665131  1 N  fyyy       
    15     -0.656013  1 N  px                54      0.619957  1 N  fyzz       

 Vector   42  Occ=0.000000D+00  E= 6.461580D-01
              MO Center=  6.0D-02,  8.7D-02, -2.3D-01, r^2= 6.4D+00
   Bfn.  Coefficient  Atom+Function         Bfn.  Coefficient  Atom+Function  
  ----- ------------  ---------------      ----- ------------  ---------------
    31      9.031103  1 N  dxy               59      8.773069  2 O  s          
   169     -8.097289  4 O  s                 35     -7.936593  1 N  dzz        
    33      7.675987  1 N  dyy               14     -6.968518  1 N  pz         
     4      6.741489  1 N  s                114     -6.276354  3 O  s          
   124     -6.075274  3 O  pz               179     -5.699310  4 O  pz         

 Vector   43  Occ=0.000000D+00  E= 6.494021D-01
              MO Center= -7.1D-02, -9.8D-02,  3.8D-01, r^2= 6.5D+00
   Bfn.  Coefficient  Atom+Function         Bfn.  Coefficient  Atom+Function  
  ----- ------------  ---------------      ----- ------------  ---------------
    34     16.339749  1 N  dyz               32      9.298982  1 N  dxz        
   114      9.166626  3 O  s                169     -7.033446  4 O  s          
    68     -5.854426  2 O  py                13     -4.575715  1 N  py         
   123     -3.811499  3 O  py               115     -3.630838  3 O  s          
   178     -3.449481  4 O  py                67     -3.360316  2 O  px         

 Vector   44  Occ=0.000000D+00  E= 7.216219D-01
              MO Center= -1.5D-02,  4.1D-03,  3.2D-01, r^2= 6.3D+00
   Bfn.  Coefficient  Atom+Function         Bfn.  Coefficient  Atom+Function  
  ----- ------------  ---------------      ----- ------------  ---------------
    14     22.969059  1 N  pz                59    -19.291319  2 O  s          
    69     13.092508  2 O  pz               114      8.148244  3 O  s          
   169      8.058636  4 O  s                 90     -6.922722  2 O  dzz        
    35      5.000475  1 N  dzz                4      4.697197  1 N  s          
    17     -4.487928  1 N  pz                31     -4.415987  1 N  dxy        

 Vector   45  Occ=0.000000D+00  E= 7.299381D-01
              MO Center=  5.3D-03, -7.6D-03, -3.6D-01, r^2= 6.2D+00
   Bfn.  Coefficient  Atom+Function         Bfn.  Coefficient  Atom+Function  
  ----- ------------  ---------------      ----- ------------  ---------------
    13     18.109774  1 N  py               114    -13.290733  3 O  s          
   169     13.178375  4 O  s                 12     10.385673  1 N  px         
    34     -7.360446  1 N  dyz              178      7.216569  4 O  py         
   123      7.159518  3 O  py               179      4.549726  4 O  pz         
   124     -4.453247  3 O  pz               122      4.293101  3 O  px         

 Vector   46  Occ=0.000000D+00  E= 7.474352D-01
              MO Center=  3.3D-02,  1.1D-01,  9.1D-01, r^2= 5.9D+00
   Bfn.  Coefficient  Atom+Function         Bfn.  Coefficient  Atom+Function  
  ----- ------------  ---------------      ----- ------------  ---------------
    32      2.119916  1 N  dxz               87      1.783291  2 O  dxz        
    34     -1.222712  1 N  dyz               70     -1.024853  2 O  px         
    89     -1.021482  2 O  dyz              106     -0.773871  2 O  fxzz       
    71      0.587126  2 O  py               141     -0.561057  3 O  dxy        
   125      0.503190  3 O  px               143      0.495965  3 O  dyy        

 Vector   47  Occ=0.000000D+00  E= 7.517988D-01
              MO Center= -2.7D-02, -1.2D-01, -8.6D-01, r^2= 6.1D+00
   Bfn.  Coefficient  Atom+Function         Bfn.  Coefficient  Atom+Function  
  ----- ------------  ---------------      ----- ------------  ---------------
    31      1.344029  1 N  dxy               33     -1.147998  1 N  dyy        
    30      1.140330  1 N  dxx              197      0.998232  4 O  dxz        
   142     -0.943231  3 O  dxz              180      0.854436  4 O  px         
   125     -0.791335  3 O  px               196      0.702214  4 O  dxy        
   144      0.599718  3 O  dyz              198     -0.558326  4 O  dyy        

 Vector   48  Occ=0.000000D+00  E= 7.875807D-01
              MO Center=  5.0D-01,  8.3D-01, -5.5D-01, r^2= 4.9D+00
   Bfn.  Coefficient  Atom+Function         Bfn.  Coefficient  Atom+Function  
  ----- ------------  ---------------      ----- ------------  ---------------
     4      4.125809  1 N  s                 14      2.769686  1 N  pz         
    59     -2.513875  2 O  s                 69      1.863605  2 O  pz         
   145     -1.871650  3 O  dzz               31      1.746513  1 N  dxy        
     5     -1.685909  1 N  s                144      1.622212  3 O  dyz        
    17      1.436618  1 N  pz                33      1.367430  1 N  dyy        

 Vector   49  Occ=0.000000D+00  E= 7.876789D-01
              MO Center= -3.4D-01, -6.4D-01, -5.7D-01, r^2= 5.1D+00
   Bfn.  Coefficient  Atom+Function         Bfn.  Coefficient  Atom+Function  
  ----- ------------  ---------------      ----- ------------  ---------------
     4      2.037646  1 N  s                 14      1.931925  1 N  pz         
   200     -1.732286  4 O  dzz               13     -1.707783  1 N  py         
    59     -1.555878  2 O  s                 34     -1.532373  1 N  dyz        
    49     -1.461196  1 N  fxyy              89     -1.268423  2 O  dyz        
    31      1.236684  1 N  dxy              199     -1.179228  4 O  dyz        

 Vector   50  Occ=0.000000D+00  E= 7.902447D-01
              MO Center= -1.5D-01, -2.0D-01,  9.9D-01, r^2= 6.2D+00
   Bfn.  Coefficient  Atom+Function         Bfn.  Coefficient  Atom+Function  
  ----- ------------  ---------------      ----- ------------  ---------------
    54      2.762945  1 N  fyzz              89      2.754686  2 O  dyz        
    71     -1.651441  2 O  py                87      1.588915  2 O  dxz        
    51      1.570553  1 N  fxzz               4      1.442132  1 N  s          
    13      1.323628  1 N  py               182     -1.168792  4 O  pz         
   109     -1.088887  2 O  fyzz             124     -1.080392  3 O  pz         

 Vector   51  Occ=0.000000D+00  E= 7.941349D-01
              MO Center= -2.4D-03, -3.5D-03,  1.7D-02, r^2= 7.0D+00
   Bfn.  Coefficient  Atom+Function         Bfn.  Coefficient  Atom+Function  
  ----- ------------  ---------------      ----- ------------  ---------------
     4     26.810438  1 N  s                  5    -15.380779  1 N  s          
    60      9.130161  2 O  s                115      8.309184  3 O  s          
   170      8.258271  4 O  s                114     -5.800383  3 O  s          
   169     -5.796490  4 O  s                 59     -5.610156  2 O  s          
    69      4.905210  2 O  pz               123      4.338928  3 O  py         

 Vector   52  Occ=0.000000D+00  E= 8.348896D-01
              MO Center=  3.3D-03, -4.6D-03, -1.4D-01, r^2= 7.2D+00
   Bfn.  Coefficient  Atom+Function         Bfn.  Coefficient  Atom+Function  
  ----- ------------  ---------------      ----- ------------  ---------------
    15      3.160664  1 N  px                16     -1.813868  1 N  py         
   125     -1.551215  3 O  px               180     -1.548261  4 O  px         
    70     -1.533943  2 O  px                87      1.531771  2 O  dxz        
    51      1.046600  1 N  fxzz             126      0.892731  3 O  py         
   181      0.886096  4 O  py                71      0.880292  2 O  py         

 Vector   53  Occ=0.000000D+00  E= 8.785792D-01
              MO Center=  1.8D-02,  2.0D-03, -4.1D-01, r^2= 4.6D+00
   Bfn.  Coefficient  Atom+Function         Bfn.  Coefficient  Atom+Function  
  ----- ------------  ---------------      ----- ------------  ---------------
   142      1.197853  3 O  dxz              197     -1.130281  4 O  dxz        
   199      0.681447  4 O  dyz              144     -0.655306  3 O  dyz        
    31     -0.626276  1 N  dxy               30     -0.533957  1 N  dxx        
    33      0.534950  1 N  dyy              141      0.534832  3 O  dxy        
   195      0.458230  4 O  dxx              196      0.454210  4 O  dxy        

 Vector   54  Occ=0.000000D+00  E= 8.839878D-01
              MO Center=  2.5D-02, -3.1D-03, -6.6D-01, r^2= 6.9D+00
   Bfn.  Coefficient  Atom+Function         Bfn.  Coefficient  Atom+Function  
  ----- ------------  ---------------      ----- ------------  ---------------
   115      7.457981  3 O  s                170     -7.478598  4 O  s          
   114     -5.194793  3 O  s                 34     -4.767091  1 N  dyz        
   169      4.737758  4 O  s                 16     -3.472743  1 N  py         
    32     -2.735651  1 N  dxz              123      2.564606  3 O  py         
   143     -2.486510  3 O  dyy              198      2.432556  4 O  dyy        

 Vector   55  Occ=0.000000D+00  E= 8.930949D-01
              MO Center= -4.1D-02, -1.2D-02,  8.4D-01, r^2= 6.5D+00
   Bfn.  Coefficient  Atom+Function         Bfn.  Coefficient  Atom+Function  
  ----- ------------  ---------------      ----- ------------  ---------------
    60     10.944582  2 O  s                 59     -5.811153  2 O  s          
    90     -4.608584  2 O  dzz               17     -4.252708  1 N  pz         
   170     -3.735765  4 O  s                 69      3.509843  2 O  pz         
   115     -3.454839  3 O  s                114      3.220464  3 O  s          
   169      3.206405  4 O  s                 31     -2.888386  1 N  dxy        

 Vector   56  Occ=0.000000D+00  E= 9.027387D-01
              MO Center= -1.8D-02,  6.8D-03,  5.5D-01, r^2= 4.4D+00
   Bfn.  Coefficient  Atom+Function         Bfn.  Coefficient  Atom+Function  
  ----- ------------  ---------------      ----- ------------  ---------------
    31      1.910945  1 N  dxy               30      1.642558  1 N  dxx        
    33     -1.639188  1 N  dyy               86     -1.335366  2 O  dxy        
    85     -1.142381  2 O  dxx               88      1.142726  2 O  dyy        
   122     -1.009852  3 O  px               177      0.995149  4 O  px         
    50      0.732075  1 N  fxyz              53     -0.627908  1 N  fyyz       

 Vector   57  Occ=0.000000D+00  E= 9.144401D-01
              MO Center= -1.3D-02,  2.5D-02, -1.4D-01, r^2= 5.7D+00
   Bfn.  Coefficient  Atom+Function         Bfn.  Coefficient  Atom+Function  
  ----- ------------  ---------------      ----- ------------  ---------------
     4     15.347899  1 N  s                  5      9.808855  1 N  s          
    59     -6.206105  2 O  s                115     -6.236247  3 O  s          
   170     -5.962901  4 O  s                169     -3.909875  4 O  s          
   114     -3.865401  3 O  s                 31      3.573972  1 N  dxy        
    69      3.408907  2 O  pz                60     -2.772621  2 O  s          

 Vector   58  Occ=0.000000D+00  E= 9.146296D-01
              MO Center=  2.0D-02, -3.2D-02, -1.4D-01, r^2= 4.8D+00
   Bfn.  Coefficient  Atom+Function         Bfn.  Coefficient  Atom+Function  
  ----- ------------  ---------------      ----- ------------  ---------------
    32      3.400133  1 N  dxz               34     -1.949471  1 N  dyz        
     4     -1.886638  1 N  s                142     -1.694043  3 O  dxz        
   197     -1.675806  4 O  dxz               67     -1.575466  2 O  px         
     5     -1.212117  1 N  s                199      0.988406  4 O  dyz        
   144      0.949932  3 O  dyz               68      0.910461  2 O  py         

 Vector   59  Occ=0.000000D+00  E= 9.529254D-01
              MO Center=  7.4D-03,  1.8D-03, -1.6D-01, r^2= 7.1D+00
   Bfn.  Coefficient  Atom+Function         Bfn.  Coefficient  Atom+Function  
  ----- ------------  ---------------      ----- ------------  ---------------
   115      9.560785  3 O  s                170     -9.223690  4 O  s          
    16     -4.492932  1 N  py                13      3.066474  1 N  py         
    15     -2.583281  1 N  px                68     -2.200819  2 O  py         
    34      1.877974  1 N  dyz               12      1.766629  1 N  px         
   145     -1.654802  3 O  dzz              140     -1.563900  3 O  dxx        

 Vector   60  Occ=0.000000D+00  E= 9.573863D-01
              MO Center= -1.0D-02, -1.1D-02,  1.0D-01, r^2= 6.8D+00
   Bfn.  Coefficient  Atom+Function         Bfn.  Coefficient  Atom+Function  
  ----- ------------  ---------------      ----- ------------  ---------------
    60      9.854955  2 O  s                 14      6.033040  1 N  pz         
   170     -5.677820  4 O  s                115     -5.056289  3 O  s          
    17     -4.650878  1 N  pz                88     -2.710257  2 O  dyy        
    85     -2.517661  2 O  dxx               55     -2.388412  1 N  fzzz       
    53     -2.138181  1 N  fyyz              48     -2.045763  1 N  fxxz       

 Vector   61  Occ=0.000000D+00  E= 1.023100D+00
              MO Center= -1.7D-03, -6.8D-03,  3.6D-02, r^2= 4.5D+00
   Bfn.  Coefficient  Atom+Function         Bfn.  Coefficient  Atom+Function  
  ----- ------------  ---------------      ----- ------------  ---------------
    12      7.671266  1 N  px                13     -4.403792  1 N  py         
    67     -4.201064  2 O  px               177     -3.509247  4 O  px         
   122     -3.441475  3 O  px                87      3.287917  2 O  dxz        
    68      2.410521  2 O  py               123      2.011338  3 O  py         
   178      1.977859  4 O  py                89     -1.888550  2 O  dyz        

 Vector   62  Occ=0.000000D+00  E= 1.094651D+00
              MO Center= -5.5D-03, -1.3D-02, -3.6D-02, r^2= 5.4D+00
   Bfn.  Coefficient  Atom+Function         Bfn.  Coefficient  Atom+Function  
  ----- ------------  ---------------      ----- ------------  ---------------
    14     36.144327  1 N  pz                59    -30.518892  2 O  s          
    69     16.057065  2 O  pz                 4     15.340767  1 N  s          
    35     14.173302  1 N  dzz              169      7.886085  4 O  s          
    90     -6.634726  2 O  dzz               85     -6.491828  2 O  dxx        
   114      6.413588  3 O  s                 88     -5.509917  2 O  dyy        

 Vector   63  Occ=0.000000D+00  E= 1.097966D+00
              MO Center=  1.4D-02,  7.1D-03, -2.2D-01, r^2= 5.3D+00
   Bfn.  Coefficient  Atom+Function         Bfn.  Coefficient  Atom+Function  
  ----- ------------  ---------------      ----- ------------  ---------------
    13     33.206865  1 N  py               114    -21.855152  3 O  s          
   169     21.814501  4 O  s                 12     19.091351  1 N  px         
    34    -13.568508  1 N  dyz              178      9.128578  4 O  py         
   123      8.920159  3 O  py                32     -7.733738  1 N  dxz        
   179      6.664191  4 O  pz               124     -6.308271  3 O  pz         

 Vector   64  Occ=0.000000D+00  E= 1.123586D+00
              MO Center= -1.1D-02, -1.0D-04,  2.5D-01, r^2= 5.9D+00
   Bfn.  Coefficient  Atom+Function         Bfn.  Coefficient  Atom+Function  
  ----- ------------  ---------------      ----- ------------  ---------------
     4     31.925511  1 N  s                114    -17.363674  3 O  s          
   169    -16.274555  4 O  s                 33     15.654090  1 N  dyy        
    31     15.243644  1 N  dxy               14    -13.385051  1 N  pz         
    35      8.671318  1 N  dzz              123      7.984851  3 O  py         
   178     -7.699610  4 O  py                30      6.764432  1 N  dxx        

 Vector   65  Occ=0.000000D+00  E= 1.151865D+00
              MO Center=  4.6D-04,  1.5D-02,  1.5D-01, r^2= 4.1D+00
   Bfn.  Coefficient  Atom+Function         Bfn.  Coefficient  Atom+Function  
  ----- ------------  ---------------      ----- ------------  ---------------
   177      5.444590  4 O  px                31      5.275601  1 N  dxy        
   122     -5.246037  3 O  px                30      4.489521  1 N  dxx        
    33     -4.507795  1 N  dyy              178     -3.112965  4 O  py         
   123      3.021531  3 O  py               197      2.204616  4 O  dxz        
   142     -2.130509  3 O  dxz              196      1.459143  4 O  dxy        

 Vector   66  Occ=0.000000D+00  E= 1.160350D+00
              MO Center=  7.1D-04, -1.0D-02, -2.3D-01, r^2= 4.1D+00
   Bfn.  Coefficient  Atom+Function         Bfn.  Coefficient  Atom+Function  
  ----- ------------  ---------------      ----- ------------  ---------------
    32      8.715378  1 N  dxz               67     -6.276004  2 O  px         
    34     -5.019933  1 N  dyz               68      3.599410  2 O  py         
    87      3.487492  2 O  dxz              122      3.421921  3 O  px         
   177      2.927302  4 O  px                89     -1.999441  2 O  dyz        
   123     -1.941009  3 O  py               178     -1.703758  4 O  py         

 Vector   67  Occ=0.000000D+00  E= 1.175891D+00
              MO Center=  8.3D-05,  7.1D-03,  1.3D-01, r^2= 5.3D+00
   Bfn.  Coefficient  Atom+Function         Bfn.  Coefficient  Atom+Function  
  ----- ------------  ---------------      ----- ------------  ---------------
    34     22.013871  1 N  dyz               32     12.586996  1 N  dxz        
    68    -11.808080  2 O  py               179      8.219151  4 O  pz         
   124     -8.170687  3 O  pz                67     -6.773251  2 O  px         
    89      5.117980  2 O  dyz              199      3.480220  4 O  dyz        
   115     -3.297776  3 O  s                144      3.304157  3 O  dyz        

 Vector   68  Occ=0.000000D+00  E= 1.188200D+00
              MO Center=  9.9D-03,  4.7D-03, -1.2D-01, r^2= 5.1D+00
   Bfn.  Coefficient  Atom+Function         Bfn.  Coefficient  Atom+Function  
  ----- ------------  ---------------      ----- ------------  ---------------
    35    -11.244829  1 N  dzz                4     11.118852  1 N  s          
    31     10.326885  1 N  dxy               69     10.162034  2 O  pz         
   124     -8.979493  3 O  pz               179     -8.495864  4 O  pz         
    33      8.151798  1 N  dyy               14      7.810452  1 N  pz         
   123     -6.143175  3 O  py               178      5.964333  4 O  py         

 Vector   69  Occ=0.000000D+00  E= 1.229900D+00
              MO Center= -2.8D-03, -1.5D-02, -1.3D-01, r^2= 5.4D+00
   Bfn.  Coefficient  Atom+Function         Bfn.  Coefficient  Atom+Function  
  ----- ------------  ---------------      ----- ------------  ---------------
     4     75.689557  1 N  s                 59    -22.446103  2 O  s          
    69     18.597465  2 O  pz               114    -16.801692  3 O  s          
   169    -16.484736  4 O  s                178    -14.025558  4 O  py         
   123     13.933683  3 O  py                35      9.811334  1 N  dzz        
   122      8.267805  3 O  px                90     -7.954707  2 O  dzz        

 Vector   70  Occ=0.000000D+00  E= 1.249119D+00
              MO Center= -5.5D-03, -4.6D-03,  9.0D-02, r^2= 5.3D+00
   Bfn.  Coefficient  Atom+Function         Bfn.  Coefficient  Atom+Function  
  ----- ------------  ---------------      ----- ------------  ---------------
    68      4.668696  2 O  py                89     -4.613262  2 O  dyz        
    13     -4.052207  1 N  py                54     -3.244865  1 N  fyzz       
   123     -2.982334  3 O  py               178     -2.853101  4 O  py         
    67      2.680955  2 O  px                87     -2.644085  2 O  dxz        
   124     -2.587254  3 O  pz               179      2.533887  4 O  pz         

 Vector   71  Occ=0.000000D+00  E= 1.327796D+00
              MO Center=  6.1D-04,  7.3D-03,  1.1D-01, r^2= 4.7D+00
   Bfn.  Coefficient  Atom+Function         Bfn.  Coefficient  Atom+Function  
  ----- ------------  ---------------      ----- ------------  ---------------
     4      6.969250  1 N  s                 31      4.518606  1 N  dxy        
    59     -4.504264  2 O  s                169     -4.349260  4 O  s          
   114     -4.326355  3 O  s                 69     -2.774152  2 O  pz         
     5      2.523382  1 N  s                 90      2.051262  2 O  dzz        
    30     -1.942449  1 N  dxx               14     -1.930288  1 N  pz         

 Vector   72  Occ=0.000000D+00  E= 1.410978D+00
              MO Center= -2.7D-02, -1.0D-02,  4.8D-01, r^2= 4.6D+00
   Bfn.  Coefficient  Atom+Function         Bfn.  Coefficient  Atom+Function  
  ----- ------------  ---------------      ----- ------------  ---------------
    14     34.598641  1 N  pz                59    -34.206065  2 O  s          
    69     31.446609  2 O  pz               169     16.050530  4 O  s          
   114     15.568956  3 O  s                 90    -15.077647  2 O  dzz        
   178     10.691037  4 O  py               123    -10.014580  3 O  py         
   179      9.456230  4 O  pz               124      8.958664  3 O  pz         

 Vector   73  Occ=0.000000D+00  E= 1.420939D+00
              MO Center=  2.2D-02,  9.2D-03, -4.8D-01, r^2= 4.5D+00
   Bfn.  Coefficient  Atom+Function         Bfn.  Coefficient  Atom+Function  
  ----- ------------  ---------------      ----- ------------  ---------------
    13     27.492982  1 N  py               114    -25.745261  3 O  s          
   169     24.647328  4 O  s                123     19.024386  3 O  py         
   178     18.677346  4 O  py                12     15.795640  1 N  px         
    34    -11.958336  1 N  dyz              122     11.389592  3 O  px         
   124    -11.112683  3 O  pz               179     10.974846  4 O  pz         

 Vector   74  Occ=0.000000D+00  E= 1.424335D+00
              MO Center= -1.6D-04, -2.4D-03, -2.9D-02, r^2= 2.9D+00
   Bfn.  Coefficient  Atom+Function         Bfn.  Coefficient  Atom+Function  
  ----- ------------  ---------------      ----- ------------  ---------------
    12      3.404894  1 N  px                51     -2.917866  1 N  fxzz       
    46     -2.682054  1 N  fxxx              49     -2.684828  1 N  fxyy       
    13     -1.944815  1 N  py                54      1.675439  1 N  fyzz       
    52      1.636452  1 N  fyyy              47      1.250075  1 N  fxxy       
    15     -0.990377  1 N  px                16      0.567527  1 N  py         

 Vector   75  Occ=0.000000D+00  E= 1.502212D+00
              MO Center= -2.7D-02,  1.7D-02, -1.5D-02, r^2= 2.8D+00
   Bfn.  Coefficient  Atom+Function         Bfn.  Coefficient  Atom+Function  
  ----- ------------  ---------------      ----- ------------  ---------------
    32      2.996756  1 N  dxz               67     -2.896033  2 O  px         
    87      2.180129  2 O  dxz              177      1.893005  4 O  px         
    34     -1.711379  1 N  dyz               68      1.649127  2 O  py         
    14      1.270342  1 N  pz                89     -1.260223  2 O  dyz        
   178     -1.150404  4 O  py                33     -1.113305  1 N  dyy        

 Vector   76  Occ=0.000000D+00  E= 1.504444D+00
              MO Center= -1.5D-02,  4.7D-03, -2.4D-03, r^2= 2.9D+00
   Bfn.  Coefficient  Atom+Function         Bfn.  Coefficient  Atom+Function  
  ----- ------------  ---------------      ----- ------------  ---------------
    31      2.844169  1 N  dxy              122     -2.759186  3 O  px         
   177      2.467329  4 O  px                30      2.051409  1 N  dxx        
   123      1.849410  3 O  py                48      1.695270  1 N  fxxz       
    50      1.678727  1 N  fxyz             197      1.477548  4 O  dxz        
   142     -1.201413  3 O  dxz               14     -1.152777  1 N  pz         

 Vector   77  Occ=0.000000D+00  E= 1.505516D+00
              MO Center=  8.8D-04, -1.3D-01, -5.6D-01, r^2= 3.7D+00
   Bfn.  Coefficient  Atom+Function         Bfn.  Coefficient  Atom+Function  
  ----- ------------  ---------------      ----- ------------  ---------------
    14     13.267382  1 N  pz                35      9.133770  1 N  dzz        
    31     -8.595767  1 N  dxy               33     -7.689421  1 N  dyy        
    59     -7.470287  2 O  s                 53     -7.011523  1 N  fyyz       
    55     -6.955352  1 N  fzzz             124      6.830792  3 O  pz         
   179      6.854747  4 O  pz                48     -5.466253  1 N  fxxz       

 Vector   78  Occ=0.000000D+00  E= 1.512288D+00
              MO Center=  4.7D-02,  1.0D-01,  5.4D-01, r^2= 3.7D+00
   Bfn.  Coefficient  Atom+Function         Bfn.  Coefficient  Atom+Function  
  ----- ------------  ---------------      ----- ------------  ---------------
    34     15.650226  1 N  dyz               13    -12.738182  1 N  py         
    32      9.053143  1 N  dxz              169     -8.611441  4 O  s          
   114      7.501665  3 O  s                 12     -7.249934  1 N  px         
    68     -6.391439  2 O  py               123     -5.701350  3 O  py         
   178     -5.725100  4 O  py                52      5.462715  1 N  fyyy       

 Vector   79  Occ=0.000000D+00  E= 1.678453D+00
              MO Center= -7.7D-04, -1.6D-03,  1.5D-03, r^2= 4.4D+00
   Bfn.  Coefficient  Atom+Function         Bfn.  Coefficient  Atom+Function  
  ----- ------------  ---------------      ----- ------------  ---------------
     4     61.527335  1 N  s                 69     12.595257  2 O  pz         
    59    -11.485227  2 O  s                178    -10.689528  4 O  py         
   114    -10.523294  3 O  s                123     10.521636  3 O  py         
   169    -10.425487  4 O  s                  5     -7.978629  1 N  s          
    90     -7.123375  2 O  dzz              179     -6.783813  4 O  pz         

 Vector   80  Occ=0.000000D+00  E= 1.719228D+00
              MO Center=  1.1D-02,  6.3D-03, -1.8D-01, r^2= 3.1D+00
   Bfn.  Coefficient  Atom+Function         Bfn.  Coefficient  Atom+Function  
  ----- ------------  ---------------      ----- ------------  ---------------
    50      3.009387  1 N  fxyz              48      2.565083  1 N  fxxz       
    53     -2.577195  1 N  fyyz              25     -1.176623  1 N  dxy        
   196     -1.094064  4 O  dxy              141     -1.083537  3 O  dxy        
    24     -1.009302  1 N  dxx               27      1.007678  1 N  dyy        
   140     -0.967712  3 O  dxx              122      0.943946  3 O  px         

 Vector   81  Occ=0.000000D+00  E= 1.732852D+00
              MO Center= -1.3D-02, -5.2D-03,  2.4D-01, r^2= 3.3D+00
   Bfn.  Coefficient  Atom+Function         Bfn.  Coefficient  Atom+Function  
  ----- ------------  ---------------      ----- ------------  ---------------
    51      2.525371  1 N  fxzz              26      2.320819  1 N  dxz        
    87      2.253946  2 O  dxz               47     -2.028114  1 N  fxxy       
   106     -1.535056  2 O  fxzz              32      1.510027  1 N  dxz        
    54     -1.459398  1 N  fyzz              28     -1.331155  1 N  dyz        
    89     -1.294176  2 O  dyz              197      1.081862  4 O  dxz        

 Vector   82  Occ=0.000000D+00  E= 1.748918D+00
              MO Center=  1.7D-03,  1.9D-03, -5.1D-03, r^2= 2.9D+00
   Bfn.  Coefficient  Atom+Function         Bfn.  Coefficient  Atom+Function  
  ----- ------------  ---------------      ----- ------------  ---------------
    13      7.112138  1 N  py                12      4.078383  1 N  px         
   123     -2.821133  3 O  py               178     -2.653380  4 O  py         
    47     -2.452858  1 N  fxxy              52     -2.424992  1 N  fyyy       
    46     -2.390497  1 N  fxxx              68     -1.994434  2 O  py         
    89      1.948457  2 O  dyz              115     -1.836153  3 O  s          

 Vector   83  Occ=0.000000D+00  E= 1.759488D+00
              MO Center= -4.3D-03, -2.2D-03,  8.2D-02, r^2= 3.0D+00
   Bfn.  Coefficient  Atom+Function         Bfn.  Coefficient  Atom+Function  
  ----- ------------  ---------------      ----- ------------  ---------------
     4     10.142821  1 N  s                 69      8.579611  2 O  pz         
    14     -5.224087  1 N  pz                90     -5.119760  2 O  dzz        
    48      5.087572  1 N  fxxz              59     -3.914150  2 O  s          
    60      3.744088  2 O  s                 53      3.266129  1 N  fyyz       
    50     -3.114814  1 N  fxyz             124      2.303903  3 O  pz         

 Vector   84  Occ=0.000000D+00  E= 1.792888D+00
              MO Center= -2.7D-03,  2.8D-03,  1.1D-01, r^2= 3.4D+00
   Bfn.  Coefficient  Atom+Function         Bfn.  Coefficient  Atom+Function  
  ----- ------------  ---------------      ----- ------------  ---------------
    12      4.714264  1 N  px                47      2.929273  1 N  fxxy       
    13     -2.706079  1 N  py                51      2.644966  1 N  fxzz       
    87      2.408973  2 O  dxz               54     -1.518759  1 N  fyzz       
    67     -1.472079  2 O  px                89     -1.383277  2 O  dyz        
   177     -1.337697  4 O  px               122     -1.314093  3 O  px         

 Vector   85  Occ=0.000000D+00  E= 1.797161D+00
              MO Center=  1.7D-03, -2.6D-03, -5.6D-02, r^2= 4.9D+00
   Bfn.  Coefficient  Atom+Function         Bfn.  Coefficient  Atom+Function  
  ----- ------------  ---------------      ----- ------------  ---------------
    54      6.996698  1 N  fyzz              51      4.008578  1 N  fxzz       
    49     -3.180062  1 N  fxyy             109     -2.274444  2 O  fyzz       
    89      1.379931  2 O  dyz              165      1.368718  3 O  fzzz       
   163      1.358981  3 O  fyyz             220     -1.364396  4 O  fzzz       
   218     -1.354741  4 O  fyyz             143     -1.328552  3 O  dyy        

 Vector   86  Occ=0.000000D+00  E= 1.944539D+00
              MO Center= -1.3D-03, -3.8D-02, -4.9D-01, r^2= 4.6D+00
   Bfn.  Coefficient  Atom+Function         Bfn.  Coefficient  Atom+Function  
  ----- ------------  ---------------      ----- ------------  ---------------
    13      5.430807  1 N  py                12      3.106941  1 N  px         
    10     -2.943523  1 N  py                54     -2.742943  1 N  fyzz       
    47     -2.684935  1 N  fxxy              52     -2.692486  1 N  fyyy       
   178      2.495938  4 O  py               123      2.232847  3 O  py         
   179      2.091213  4 O  pz                49     -2.056529  1 N  fxyy       

 Vector   87  Occ=0.000000D+00  E= 1.953876D+00
              MO Center= -4.6D-03,  1.6D-02,  3.6D-01, r^2= 4.6D+00
   Bfn.  Coefficient  Atom+Function         Bfn.  Coefficient  Atom+Function  
  ----- ------------  ---------------      ----- ------------  ---------------
    14      7.495762  1 N  pz                 4     -4.201688  1 N  s          
    69      3.925188  2 O  pz                53     -3.535062  1 N  fyyz       
    11     -3.505944  1 N  pz               123     -3.125410  3 O  py         
   178      3.049374  4 O  py               110     -2.960687  2 O  fzzz       
    48     -2.904867  1 N  fxxz              55     -2.908534  1 N  fzzz       

 Vector   88  Occ=0.000000D+00  E= 1.959105D+00
              MO Center=  2.5D-02,  2.8D-03, -5.4D-01, r^2= 3.6D+00
   Bfn.  Coefficient  Atom+Function         Bfn.  Coefficient  Atom+Function  
  ----- ------------  ---------------      ----- ------------  ---------------
   122      2.478080  3 O  px               177     -2.443336  4 O  px         
   161     -1.702499  3 O  fxzz             216      1.700690  4 O  fxzz       
   123     -1.428167  3 O  py               178      1.397906  4 O  py         
   156     -1.237783  3 O  fxxx             214      1.234840  4 O  fxyy       
   159     -1.224323  3 O  fxyy             211      1.216494  4 O  fxxx       

 Vector   89  Occ=0.000000D+00  E= 1.965069D+00
              MO Center= -1.4D-02,  4.6D-03,  4.6D-01, r^2= 3.4D+00
   Bfn.  Coefficient  Atom+Function         Bfn.  Coefficient  Atom+Function  
  ----- ------------  ---------------      ----- ------------  ---------------
    67      3.186743  2 O  px                68     -1.829072  2 O  py         
   106     -1.825908  2 O  fxzz             101     -1.430204  2 O  fxxx       
   104     -1.434367  2 O  fxyy             122     -1.264556  3 O  px         
   177     -1.263573  4 O  px                32     -1.051882  1 N  dxz        
   109      1.047991  2 O  fyzz             107      0.957244  2 O  fyyy       

 Vector   90  Occ=0.000000D+00  E= 1.989297D+00
              MO Center= -5.8D-03, -1.7D-02, -9.1D-02, r^2= 4.1D+00
   Bfn.  Coefficient  Atom+Function         Bfn.  Coefficient  Atom+Function  
  ----- ------------  ---------------      ----- ------------  ---------------
   177      1.783971  4 O  px               122      1.758646  3 O  px         
   216     -1.660215  4 O  fxzz             161     -1.623227  3 O  fxzz       
    67      1.522955  2 O  px                12     -1.483074  1 N  px         
   106     -1.285970  2 O  fxzz              15      1.218124  1 N  px         
   178     -1.028959  4 O  py               123     -1.003461  3 O  py         

 Vector   91  Occ=0.000000D+00  E= 2.042400D+00
              MO Center=  2.4D-02,  7.9D-03, -4.4D-01, r^2= 3.1D+00
   Bfn.  Coefficient  Atom+Function         Bfn.  Coefficient  Atom+Function  
  ----- ------------  ---------------      ----- ------------  ---------------
   122      1.493019  3 O  px               177     -1.467184  4 O  px         
    31     -0.939604  1 N  dxy              156     -0.904399  3 O  fxxx       
   214      0.904379  4 O  fxyy             160      0.891379  3 O  fxyz       
   178      0.866963  4 O  py               159     -0.850689  3 O  fxyy       
   211      0.852339  4 O  fxxx             123     -0.832613  3 O  py         

 Vector   92  Occ=0.000000D+00  E= 2.074993D+00
              MO Center= -2.3D-02, -1.2D-02,  4.6D-01, r^2= 3.0D+00
   Bfn.  Coefficient  Atom+Function         Bfn.  Coefficient  Atom+Function  
  ----- ------------  ---------------      ----- ------------  ---------------
    67      2.361067  2 O  px                32     -2.038725  1 N  dxz        
[...]
     4     63.466545  1 N  s                 69     17.863737  2 O  pz         
   178    -13.521722  4 O  py               123     13.338916  3 O  py         
    59    -12.317477  2 O  s                114    -12.313053  3 O  s          
   169    -12.325258  4 O  s                179     -9.074240  4 O  pz         
   124     -8.791285  3 O  pz               122      8.009978  3 O  px         

 Vector  214  Occ=0.000000D+00  E= 1.683484D+01
              MO Center=  3.2D-01,  5.6D-01,  6.3D-02, r^2= 2.0D+00
   Bfn.  Coefficient  Atom+Function         Bfn.  Coefficient  Atom+Function  
  ----- ------------  ---------------      ----- ------------  ---------------
   114     15.198921  3 O  s                 59    -11.832376  2 O  s          
    14      9.689767  1 N  pz                69      7.991934  2 O  pz         
   112      7.854349  3 O  s                 13     -7.571842  1 N  py         
   123     -7.567567  3 O  py                66      6.840868  2 O  pz         
   120     -6.388792  3 O  py                57     -6.103372  2 O  s          

 Vector  215  Occ=0.000000D+00  E= 1.683522D+01
              MO Center= -3.2D-01, -5.6D-01, -7.3D-02, r^2= 2.0D+00
   Bfn.  Coefficient  Atom+Function         Bfn.  Coefficient  Atom+Function  
  ----- ------------  ---------------      ----- ------------  ---------------
   169     15.592996  4 O  s                 59    -10.722987  2 O  s          
    14      8.921608  1 N  pz                13      8.561676  1 N  py         
   167      8.042676  4 O  s                178      7.907683  4 O  py         
    69      7.234857  2 O  pz               175      6.709414  4 O  py         
    66      6.205152  2 O  pz                57     -5.544217  2 O  s          

 Vector  216  Occ=0.000000D+00  E= 1.689344D+01
              MO Center= -2.4D-03, -5.5D-03, -6.4D-03, r^2= 2.2D+00
   Bfn.  Coefficient  Atom+Function         Bfn.  Coefficient  Atom+Function  
  ----- ------------  ---------------      ----- ------------  ---------------
    57      6.855226  2 O  s                167      6.880750  4 O  s          
   112      6.843003  3 O  s                169      6.455797  4 O  s          
    59      6.408217  2 O  s                114      6.383339  3 O  s          
     5     -3.515165  1 N  s                 82     -3.055091  2 O  dyy        
   139     -3.036112  3 O  dzz              194     -3.042466  4 O  dzz        

 Vector  217  Occ=0.000000D+00  E= 1.752091D+01
              MO Center=  1.5D-01,  2.8D-01,  4.1D-01, r^2= 1.7D+00
   Bfn.  Coefficient  Atom+Function         Bfn.  Coefficient  Atom+Function  
  ----- ------------  ---------------      ----- ------------  ---------------
    14     20.590429  1 N  pz                69     16.063957  2 O  pz         
    66     12.220652  2 O  pz               123     -9.318315  3 O  py         
    90     -8.266274  2 O  dzz              120     -6.921260  3 O  py         
   124      6.803618  3 O  pz                11      6.616519  1 N  pz         
    59     -6.475365  2 O  s                 13     -5.962646  1 N  py         

 Vector  218  Occ=0.000000D+00  E= 1.752130D+01
              MO Center= -1.5D-01, -2.9D-01, -4.2D-01, r^2= 1.7D+00
   Bfn.  Coefficient  Atom+Function         Bfn.  Coefficient  Atom+Function  
  ----- ------------  ---------------      ----- ------------  ---------------
    13     18.000383  1 N  py               178     12.688090  4 O  py         
    12     10.036398  1 N  px               175      9.699407  4 O  py         
   123      8.619866  3 O  py               179      8.327146  4 O  pz         
    14      7.291548  1 N  pz               198      7.049282  4 O  dyy        
   177      6.945760  4 O  px                34     -6.872391  1 N  dyz        

 Vector  219  Occ=0.000000D+00  E= 1.996265D+01
              MO Center= -6.0D-04, -2.2D-03, -5.5D-03, r^2= 2.7D+00
   Bfn.  Coefficient  Atom+Function         Bfn.  Coefficient  Atom+Function  
  ----- ------------  ---------------      ----- ------------  ---------------
    50     13.940471  1 N  fxyz              53     12.151908  1 N  fyyz       
     4     10.565069  1 N  s                 66     -9.475503  2 O  pz         
    57      7.923739  2 O  s                112      7.922454  3 O  s          
   167      7.927538  4 O  s                 59     -7.543625  2 O  s          
   114     -7.550166  3 O  s                169     -7.538249  4 O  s          

 Vector  220  Occ=0.000000D+00  E= 2.504196D+01
              MO Center= -4.4D-04, -1.9D-03, -5.5D-03, r^2= 2.0D+00
   Bfn.  Coefficient  Atom+Function         Bfn.  Coefficient  Atom+Function  
  ----- ------------  ---------------      ----- ------------  ---------------
     2     25.086774  1 N  s                  4    -21.010138  1 N  s          
     1     12.494414  1 N  s                 35     -7.712766  1 N  dzz        
    69     -7.020247  2 O  pz                25      6.321182  1 N  dxy        
    33     -6.006489  1 N  dyy               31     -5.971762  1 N  dxy        
    66      5.928483  2 O  pz               178      5.314311  4 O  py         


 center of mass
 --------------
 x =  -0.00075503 y =  -0.00354103 z =  -0.01028141

 moments of inertia (a.u.)
 ------------------
         241.907688493826         -59.555115252332           4.178854620602
         -59.555115252332         172.313152247669          -2.413524261479
           4.178854620602          -2.413524261479         138.289196452067

     Multipole analysis of the density
     ---------------------------------

     L   x y z        total         alpha         beta         nuclear
     -   - - -        -----         -----         ----         -------
     0   0 0 0     -1.000000    -16.000000    -16.000000     31.000000

     1   1 0 0     -0.000126      0.011640      0.011640     -0.023406
     1   0 1 0      0.001987      0.055879      0.055879     -0.109772
     1   0 0 1      0.009928      0.164326      0.164326     -0.318724

     2   2 0 0    -18.734651    -17.956899    -17.956899     17.179148
     2   1 1 0     -2.533966    -16.160541    -16.160541     29.787117
     2   1 0 1      0.178948      1.134400      1.134400     -2.089852
     2   0 2 0    -21.695595    -36.841728    -36.841728     51.987860
     2   0 1 1     -0.100722     -0.654498     -0.654498      1.208275
     2   0 0 2    -23.143539    -46.075840    -46.075840     69.008140

 Line search: 
     step= 1.00 grad=-4.5D-07 hess= 3.7D-07 energy=   -280.228564 mode=accept  
 new step= 1.00                   predicted energy=   -280.228564

          --------
          Step   5
          --------


                         Geometry "geometry" -> "geometry"
                         ---------------------------------

 Output coordinates in angstroms (scale by  1.889725989 to convert to a.u.)

  No.       Tag          Charge          X              Y              Z
 ---- ---------------- ---------- -------------- -------------- --------------
    1 N                    7.0000    -0.00043823    -0.00192739    -0.00543460
    2 O                    8.0000    -0.04451030     0.01042904     1.26347332
    3 O                    8.0000     0.56866945     0.94581174    -0.63000995
    4 O                    8.0000    -0.52532392    -0.96181539    -0.64979077

      Atomic Mass 
      ----------- 

      N                 14.003070
      O                 15.994910


 Effective nuclear repulsion energy (a.u.)     116.2168334106

            Nuclear Dipole moment (a.u.) 
            ----------------------------
        X                 Y               Z
 ---------------- ---------------- ----------------
    -0.0234057081    -0.1097715491    -0.3187238390


                                 NWChem DFT Module
                                 -----------------




 Summary of "ao basis" -> "ao basis" (cartesian)
 ------------------------------------------------------------------------------
       Tag                 Description            Shells   Functions and Types
 ---------------- ------------------------------  ------  ---------------------
 N                        aug-cc-pVTZ               14       55   5s4p3d2f
 O                        aug-cc-pVTZ               14       55   5s4p3d2f



  The DFT is already converged 

         Total DFT energy =   -280.228563744730


            General Information
            -------------------
          SCF calculation type: DFT
          Wavefunction type:  closed shell.
          No. of atoms     :     4
          No. of electrons :    32
           Alpha electrons :    16
            Beta electrons :    16
          Charge           :    -1
          Spin multiplicity:     1
          Use of symmetry is: off; symmetry adaption is: off
          Maximum number of iterations: 200
          AO basis - number of functions:   220
                     number of shells:    56
          Convergence on energy requested:  1.00D-06
          Convergence on density requested:  1.00D-05
          Convergence on gradient requested:  5.00D-04

              XC Information
              --------------
          PerdewBurkeErnzerhof Exchange Functional  1.000          
            Perdew 1991 LDA Correlation Functional  1.000 local    
           PerdewBurkeErnz. Correlation Functional  1.000 non-local

             Grid Information
             ----------------
          Grid used for XC integration:  medium    
          Radial quadrature: Mura-Knowles        
          Angular quadrature: Lebedev. 
          Tag              B.-S. Rad. Rad. Pts. Rad. Cut. Ang. Pts.
          ---              ---------- --------- --------- ---------
          N                   0.65       49           9.0       434
          O                   0.60       49          10.0       434
          Grid pruning is: on 
          Number of quadrature shells:   196
          Spatial weights used:  Erf1

          Convergence Information
          -----------------------
          Convergence aids based upon iterative change in 
          total energy or number of iterations. 
          Levelshifting, if invoked, occurs when the 
          HOMO/LUMO gap drops below (HL_TOL):  1.00D-02
          DIIS, if invoked, will attempt to extrapolate 
          using up to (NFOCK): 10 stored Fock matrices.

                    Damping(40%)  Levelshifting(0.0)       DIIS
                  --------------- ------------------- ---------------
          dE  on:    start            ASAP                start   
          dE off:  200 iters        200 iters           200 iters 


      Screening Tolerance Information
      -------------------------------
          Density screening/tol_rho:  1.00D-10
          AO Gaussian exp screening on grid/accAOfunc:  14
          CD Gaussian exp screening on grid/accCDfunc:  20
          XC Gaussian exp screening on grid/accXCfunc:  20
          Schwarz screening/accCoul:  1.00D-08



                            NWChem DFT Gradient Module
                            --------------------------



  charge          =  -1.00
  wavefunction    = closed shell



                         DFT ENERGY GRADIENTS

    atom               coordinates                        gradient
                 x          y          z           x          y          z
   1 N      -0.000828  -0.003642  -0.010270    0.000132   0.000241   0.000043
   2 O      -0.084112   0.019708   2.387618   -0.000005  -0.000013  -0.000016
   3 O       1.074629   1.787325  -1.190546   -0.000078  -0.000134   0.000053
   4 O      -0.992718  -1.817568  -1.227927   -0.000049  -0.000093  -0.000080

                 ----------------------------------------
                 |  Time  |  1-e(secs)   |  2-e(secs)   |
                 ----------------------------------------
                 |  CPU   |       0.00   |       3.18   |
                 ----------------------------------------
                 |  WALL  |       0.00   |       3.19   |
                 ----------------------------------------

  Step       Energy      Delta E   Gmax     Grms     Xrms     Xmax   Walltime
  ---- ---------------- -------- -------- -------- -------- -------- --------
@    5    -280.22856374 -8.1D-08  0.00024  0.00010  0.00035  0.00061    110.5
                                     ok       ok       ok       ok  


      ----------------------
      Optimization converged
      ----------------------


  Step       Energy      Delta E   Gmax     Grms     Xrms     Xmax   Walltime
  ---- ---------------- -------- -------- -------- -------- -------- --------
@    5    -280.22856374 -8.1D-08  0.00024  0.00010  0.00035  0.00061    110.5
                                     ok       ok       ok       ok  



                         Geometry "geometry" -> "geometry"
                         ---------------------------------

 Output coordinates in angstroms (scale by  1.889725989 to convert to a.u.)

  No.       Tag          Charge          X              Y              Z
 ---- ---------------- ---------- -------------- -------------- --------------
    1 N                    7.0000    -0.00043823    -0.00192739    -0.00543460
    2 O                    8.0000    -0.04451030     0.01042904     1.26347332
    3 O                    8.0000     0.56866945     0.94581174    -0.63000995
    4 O                    8.0000    -0.52532392    -0.96181539    -0.64979077

      Atomic Mass 
      ----------- 

      N                 14.003070
      O                 15.994910


 Effective nuclear repulsion energy (a.u.)     116.2168334106

            Nuclear Dipole moment (a.u.) 
            ----------------------------
        X                 Y               Z
 ---------------- ---------------- ----------------
    -0.0234057081    -0.1097715491    -0.3187238390

 ==============================================================================
                                internuclear distances
 ------------------------------------------------------------------------------
       center one      |      center two      | atomic units |  angstroms
 ------------------------------------------------------------------------------
    2 O                |   1 N                |     2.39945  |     1.26973
    3 O                |   1 N                |     2.39942  |     1.26972
    4 O                |   1 N                |     2.39935  |     1.26968
 ------------------------------------------------------------------------------
                         number of included internuclear distances:          3
 ==============================================================================



 ==============================================================================
                                 internuclear angles
 ------------------------------------------------------------------------------
        center 1       |       center 2       |       center 3       |  degrees
 ------------------------------------------------------------------------------
    2 O                |   1 N                |   3 O                |   119.99
    2 O                |   1 N                |   4 O                |   120.01
    3 O                |   1 N                |   4 O                |   120.00
 ------------------------------------------------------------------------------
                            number of included internuclear angles:          3
 ==============================================================================




 Task  times  cpu:      107.6s     wall:      110.3s


                                NWChem Input Module
                                -------------------


 Summary of allocated global arrays
-----------------------------------
  No active global arrays


MA_summarize_allocated_blocks: starting scan ...
MA_summarize_allocated_blocks: scan completed: 0 heap blocks, 0 stack blocks
MA usage statistics:

	allocation statistics:
					      heap	     stack
					      ----	     -----
	current number of blocks	         0	         0
	maximum number of blocks	        24	        53
	current total bytes		         0	         0
	maximum total bytes		 268868656	  42583080
	maximum total K-bytes		    268869	     42584
	maximum total M-bytes		       269	        43


                                     CITATION
                                     --------
                Please cite the following reference when publishing
                           results obtained with NWChem:

          E. Apra, E. J. Bylaska, W. A. de Jong, N. Govind, K. Kowalski,
       T. P. Straatsma, M. Valiev, H. J. J. van Dam, Y. Alexeev, J. Anchell,
       V. Anisimov, F. W. Aquino, R. Atta-Fynn, J. Autschbach, N. P. Bauman,
     J. C. Becca, D. E. Bernholdt, K. Bhaskaran-Nair, S. Bogatko, P. Borowski,
         J. Boschen, J. Brabec, A. Bruner, E. Cauet, Y. Chen, G. N. Chuev,
      C. J. Cramer, J. Daily, M. J. O. Deegan, T. H. Dunning Jr., M. Dupuis,
   K. G. Dyall, G. I. Fann, S. A. Fischer, A. Fonari, H. Fruchtl, L. Gagliardi,
      J. Garza, N. Gawande, S. Ghosh, K. Glaesemann, A. W. Gotz, J. Hammond,
       V. Helms, E. D. Hermes, K. Hirao, S. Hirata, M. Jacquelin, L. Jensen,
   B. G. Johnson, H. Jonsson, R. A. Kendall, M. Klemm, R. Kobayashi, V. Konkov,
      S. Krishnamoorthy, M. Krishnan, Z. Lin, R. D. Lins, R. J. Littlefield,
      A. J. Logsdail, K. Lopata, W. Ma, A. V. Marenich, J. Martin del Campo,
   D. Mejia-Rodriguez, J. E. Moore, J. M. Mullin, T. Nakajima, D. R. Nascimento,
    J. A. Nichols, P. J. Nichols, J. Nieplocha, A. Otero-de-la-Roza, B. Palmer,
    A. Panyala, T. Pirojsirikul, B. Peng, R. Peverati, J. Pittner, L. Pollack,
   R. M. Richard, P. Sadayappan, G. C. Schatz, W. A. Shelton, D. W. Silverstein,
   D. M. A. Smith, T. A. Soares, D. Song, M. Swart, H. L. Taylor, G. S. Thomas,
            V. Tipparaju, D. G. Truhlar, K. Tsemekhman, T. Van Voorhis,
      A. Vazquez-Mayagoitia, P. Verma, O. Villa, A. Vishnu, K. D. Vogiatzis,
        D. Wang, J. H. Weare, M. J. Williamson, T. L. Windus, K. Wolinski,
        A. T. Wong, Q. Wu, C. Yang, Q. Yu, M. Zacharias, Z. Zhang, Y. Zhao,
                                and R. J. Harrison
                        "NWChem: Past, present, and future
                         J. Chem. Phys. 152, 184102 (2020)
                               doi:10.1063/5.0004997

                                      AUTHORS
                                      -------
  E. Apra, E. J. Bylaska, N. Govind, K. Kowalski, M. Valiev, D. Mejia-Rodriguez,
       A. Kunitsa, N. P. Bauman, A. Panyala, W. A. de Jong, T. P. Straatsma,
   H. J. J. van Dam, D. Wang, T. L. Windus, J. Hammond, J. Autschbach, A. Woods,
    K. Bhaskaran-Nair, J. Brabec, K. Lopata, S. A. Fischer, S. Krishnamoorthy,
     M. Jacquelin, W. Ma, M. Klemm, O. Villa, Y. Chen, V. Anisimov, F. Aquino,
     S. Hirata, M. T. Hackler, E. Hermes, L. Jensen, J. E. Moore, J. C. Becca,
      V. Konjkov, T. Risthaus, M. Malagoli, A. Marenich, A. Otero-de-la-Roza,
        J. Mullin, P. Nichols, R. Peverati, J. Pittner, Y. Zhao, P.-D. Fan,
        A. Fonari, M. J. Williamson, R. J. Harrison, J. R. Rehr, M. Dupuis,
     D. Silverstein, D. M. A. Smith, J. Nieplocha, V. Tipparaju, M. Krishnan,
     B. E. Van Kuiken, A. Vazquez-Mayagoitia, M. Swart, Q. Wu, T. Van Voorhis,
     A. A. Auer, M. Nooijen, L. D. Crosby, E. Brown, G. Cisneros, G. I. Fann,
   H. Fruchtl, J. Garza, K. Hirao, R. A. Kendall, J. A. Nichols, K. Tsemekhman,
    K. Wolinski, J. Anchell, D. E. Bernholdt, P. Borowski, T. Clark, D. Clerc,
   H. Dachsel, M. J. O. Deegan, K. Dyall, D. Elwood, E. Glendening, M. Gutowski,
   A. C. Hess, J. Jaffe, B. G. Johnson, J. Ju, R. Kobayashi, R. Kutteh, Z. Lin,
   R. Littlefield, X. Long, B. Meng, T. Nakajima, S. Niu, L. Pollack, M. Rosing,
   K. Glaesemann, G. Sandrone, M. Stave, H. Taylor, G. Thomas, J. H. van Lenthe,
                               A. T. Wong, Z. Zhang.

 Total times  cpu:      107.6s     wall:      110.5s
