 argument  1 = m1e/mol.nwi
                                         
                                         


             Northwest Computational Chemistry Package (NWChem) 7.2.2
             --------------------------------------------------------


                    Environmental Molecular Sciences Laboratory
                       Pacific Northwest National Laboratory
                                Richland, WA 99352

                              Copyright (c) 1994-2022
                       Pacific Northwest National Laboratory
                            Battelle Memorial Institute

             NWChem is an open-source computational chemistry package
                        distributed under the terms of the
                      Educational Community License (ECL) 2.0
             A copy of the license is included with this distribution
                              in the LICENSE.TXT file

                                  ACKNOWLEDGMENT
                                  --------------

            This software and its documentation were developed at the
            EMSL at Pacific Northwest National Laboratory, a multiprogram
            national laboratory, operated for the U.S. Department of Energy
            by Battelle under Contract Number DE-AC05-76RL01830. Support
            for this work was provided by the Department of Energy Office
            of Biological and Environmental Research, Office of Basic
            Energy Sciences, and the Office of Advanced Scientific Computing.


           Job information
           ---------------

    hostname        = r227.ib.bridges2.psc.edu
    program         = nwchem
    date            = Tue Oct  1 15:13:29 2024

    compiled        = Mon_Mar_18_17:03:37_2024
    source          = /ocean/projects/pscstaff/mmadrid/nwchem-7.2.2
    nwchem branch   = 7.2.2
    nwchem revision = 74936fb9
    ga revision     = 5.8.0
    use scalapack   = F
    input           = m1e/mol.nwi
    prefix          = dft.
    data base       = .//dft.db
    status          = startup
    nproc           =       15
    time left       =     -1s



           Memory information
           ------------------

    heap     =   67108862 doubles =    512.0 Mbytes
    stack    =   67108859 doubles =    512.0 Mbytes
    global   =  134217728 doubles =   1024.0 Mbytes (distinct from heap & stack)
    total    =  268435449 doubles =   2048.0 Mbytes
    verify   = yes
    hardfail = no 


           Directory information
           ---------------------

  0 permanent = ./
  0 scratch   = /jet/home/hmt47/nwchem_scratch/




                                NWChem Input Module
                                -------------------


  library name resolved from: environment
  library file name is: </opt/packages/nwchem/nwchem7.2.2/share/nwchem/libraries/>
  


 Summary of "ao basis" -> "" (cartesian)
 ------------------------------------------------------------------------------
       Tag                 Description            Shells   Functions and Types
 ---------------- ------------------------------  ------  ---------------------
 *                        aug-cc-pVTZ                 on all atoms 


  pbe96 is a nonlocal functional; adding pw91lda local functional. 

 Scaling coordinates for geometry "geometry" by  1.889725989
 (inverse scale =  0.529177249)



                             Geometry "geometry" -> ""
                             -------------------------

 Output coordinates in angstroms (scale by  1.889725989 to convert to a.u.)

  No.       Tag          Charge          X              Y              Z
 ---- ---------------- ---------- -------------- -------------- --------------
    1 Cl                  17.0000     0.00000000     0.00000000     0.00000000
    2 O                    8.0000     1.22018100     0.68905900    -0.50831300
    3 O                    8.0000    -1.20758600     0.71962600    -0.48390500
    4 O                    8.0000    -0.02188300    -1.39995100    -0.51710200
    5 O                    8.0000     0.01874900    -0.01879500     1.43823100

      Atomic Mass 
      ----------- 

      Cl                34.968850
      O                 15.994910


 Effective nuclear repulsion energy (a.u.)     279.1832751794

            Nuclear Dipole moment (a.u.) 
            ----------------------------
        X                 Y               Z
 ---------------- ---------------- ----------------
     0.1430295806    -0.1521002654    -1.0747098464


            XYZ format geometry
            -------------------
     5
 geometry
 Cl                    0.00000000     0.00000000     0.00000000
 O                     1.22018100     0.68905900    -0.50831300
 O                    -1.20758600     0.71962600    -0.48390500
 O                    -0.02188300    -1.39995100    -0.51710200
 O                     0.01874900    -0.01879500     1.43823100

 ==============================================================================
                                internuclear distances
 ------------------------------------------------------------------------------
       center one      |      center two      | atomic units |  angstroms
 ------------------------------------------------------------------------------
    2 O                |   1 Cl               |     2.81691  |     1.49065
    3 O                |   1 Cl               |     2.80946  |     1.48670
    4 O                |   1 Cl               |     2.82053  |     1.49256
    5 O                |   1 Cl               |     2.71833  |     1.43848
 ------------------------------------------------------------------------------
                         number of included internuclear distances:          4
 ==============================================================================



 ==============================================================================
                                 internuclear angles
 ------------------------------------------------------------------------------
        center 1       |       center 2       |       center 3       |  degrees
 ------------------------------------------------------------------------------
    2 O                |   1 Cl               |   3 O                |   109.28
    2 O                |   1 Cl               |   4 O                |   109.11
    2 O                |   1 Cl               |   5 O                |   109.65
    3 O                |   1 Cl               |   4 O                |   109.23
    3 O                |   1 Cl               |   5 O                |   110.02
    4 O                |   1 Cl               |   5 O                |   109.53
 ------------------------------------------------------------------------------
                            number of included internuclear angles:          6
 ==============================================================================





                           NWChem Geometry Optimization
                           ----------------------------


 maximum gradient threshold         (gmax) =   0.000450
 rms gradient threshold             (grms) =   0.000300
 maximum cartesian step threshold   (xmax) =   0.001800
 rms cartesian step threshold       (xrms) =   0.001200
 fixed trust radius                (trust) =   0.300000
 maximum step size to saddle      (sadstp) =   0.100000
 energy precision                  (eprec) =   5.0D-06
 maximum number of steps          (nptopt) =   40
 initial hessian option           (inhess) =    0
 line search option               (linopt) =    1
 hessian update option            (modupd) =    1
 saddle point option              (modsad) =    0
 initial eigen-mode to follow     (moddir) =    0
 initial variable to follow       (vardir) =    0
 follow first negative mode     (firstneg) =    T
 apply conjugacy                    (opcg) =    F
 source of zmatrix                         =           


          -------------------
          Energy Minimization
          -------------------


 Using diagonal initial Hessian 

          --------
          Step   0
          --------


                         Geometry "geometry" -> "geometry"
                         ---------------------------------

 Output coordinates in angstroms (scale by  1.889725989 to convert to a.u.)

  No.       Tag          Charge          X              Y              Z
 ---- ---------------- ---------- -------------- -------------- --------------
    1 Cl                  17.0000     0.00000000     0.00000000     0.00000000
    2 O                    8.0000     1.22018100     0.68905900    -0.50831300
    3 O                    8.0000    -1.20758600     0.71962600    -0.48390500
    4 O                    8.0000    -0.02188300    -1.39995100    -0.51710200
    5 O                    8.0000     0.01874900    -0.01879500     1.43823100

      Atomic Mass 
      ----------- 

      Cl                34.968850
      O                 15.994910


 Effective nuclear repulsion energy (a.u.)     279.1832751794

            Nuclear Dipole moment (a.u.) 
            ----------------------------
        X                 Y               Z
 ---------------- ---------------- ----------------
     0.1430295806    -0.1521002654    -1.0747098464


                                 NWChem DFT Module
                                 -----------------


                      Basis "ao basis" -> "ao basis" (cartesian)
                      -----
  Cl (Chlorine)
  -------------
            Exponent  Coefficients 
       -------------- ---------------------------------------------------------
  1 S  4.56100000E+05  0.000049
  1 S  6.83300000E+04  0.000383
  1 S  1.55500000E+04  0.002009
  1 S  4.40500000E+03  0.008386
  1 S  1.43900000E+03  0.029470
  1 S  5.20400000E+02  0.087833
  1 S  2.03100000E+02  0.211473
  1 S  8.39600000E+01  0.365364
  1 S  3.62000000E+01  0.340884
  1 S  1.58300000E+01  0.102133
  1 S  6.33400000E+00  0.003117
  1 S  2.69400000E+00  0.001058
  1 S  4.31300000E-01  0.000156

  2 S  4.56100000E+05 -0.000014
  2 S  6.83300000E+04 -0.000107
  2 S  1.55500000E+04 -0.000565
  2 S  4.40500000E+03 -0.002361
  2 S  1.43900000E+03 -0.008459
  2 S  5.20400000E+02 -0.025964
  2 S  2.03100000E+02 -0.068636
  2 S  8.39600000E+01 -0.141874
  2 S  3.62000000E+01 -0.199319
  2 S  1.58300000E+01 -0.019566
  2 S  6.33400000E+00  0.499741
  2 S  2.69400000E+00  0.563736
  2 S  4.31300000E-01 -0.008351

  3 S  4.56100000E+05  0.000004
  3 S  6.83300000E+04  0.000032
  3 S  1.55500000E+04  0.000171
  3 S  4.40500000E+03  0.000714
  3 S  1.43900000E+03  0.002567
  3 S  5.20400000E+02  0.007886
  3 S  2.03100000E+02  0.021087
  3 S  8.39600000E+01  0.044226
  3 S  3.62000000E+01  0.065167
  3 S  1.58300000E+01  0.006030
  3 S  6.33400000E+00 -0.206495
  3 S  2.69400000E+00 -0.405871
  3 S  4.31300000E-01  0.725661

  4 S  9.76800000E-01  1.000000

  5 S  1.62500000E-01  1.000000

  6 S  5.91000000E-02  1.000000

  7 P  6.63300000E+02  0.002404
  7 P  1.56800000E+02  0.019215
  7 P  4.99800000E+01  0.088510
  7 P  1.84200000E+01  0.256020
  7 P  7.24000000E+00  0.436927
  7 P  2.92200000E+00  0.350334
  7 P  3.81800000E-01 -0.004584

  8 P  6.63300000E+02 -0.000652
  8 P  1.56800000E+02 -0.005194
  8 P  4.99800000E+01 -0.024694
  8 P  1.84200000E+01 -0.072817
  8 P  7.24000000E+00 -0.134030
  8 P  2.92200000E+00 -0.094774
  8 P  3.81800000E-01  0.564667

  9 P  1.02200000E+00  1.000000

 10 P  1.30100000E-01  1.000000

 11 P  4.19000000E-02  1.000000

 12 D  1.04600000E+00  1.000000

 13 D  3.44000000E-01  1.000000

 14 D  1.35000000E-01  1.000000

 15 F  7.06000000E-01  1.000000

 16 F  3.12000000E-01  1.000000

  O (Oxygen)
  ----------
            Exponent  Coefficients 
       -------------- ---------------------------------------------------------
  1 S  1.53300000E+04  0.000508
  1 S  2.29900000E+03  0.003929
  1 S  5.22400000E+02  0.020243
  1 S  1.47300000E+02  0.079181
  1 S  4.75500000E+01  0.230687
  1 S  1.67600000E+01  0.433118
  1 S  6.20700000E+00  0.350260
  1 S  6.88200000E-01 -0.008154

  2 S  1.53300000E+04 -0.000115
  2 S  2.29900000E+03 -0.000895
  2 S  5.22400000E+02 -0.004636
  2 S  1.47300000E+02 -0.018724
  2 S  4.75500000E+01 -0.058463
  2 S  1.67600000E+01 -0.136463
  2 S  6.20700000E+00 -0.175740
  2 S  6.88200000E-01  0.603418

  3 S  1.75200000E+00  1.000000

  4 S  2.38400000E-01  1.000000

  5 S  7.37600000E-02  1.000000

  6 P  3.44600000E+01  0.015928
  6 P  7.74900000E+00  0.099740
  6 P  2.28000000E+00  0.310492

  7 P  7.15600000E-01  1.000000

  8 P  2.14000000E-01  1.000000

  9 P  5.97400000E-02  1.000000

 10 D  2.31400000E+00  1.000000

 11 D  6.45000000E-01  1.000000

 12 D  2.14000000E-01  1.000000

 13 F  1.42800000E+00  1.000000

 14 F  5.00000000E-01  1.000000



 Summary of "ao basis" -> "ao basis" (cartesian)
 ------------------------------------------------------------------------------
       Tag                 Description            Shells   Functions and Types
 ---------------- ------------------------------  ------  ---------------------
 Cl                       aug-cc-pVTZ               16       59   6s5p3d2f
 O                        aug-cc-pVTZ               14       55   5s4p3d2f




 Summary of "ao basis" -> "ao basis" (cartesian)
 ------------------------------------------------------------------------------
       Tag                 Description            Shells   Functions and Types
 ---------------- ------------------------------  ------  ---------------------
 Cl                       aug-cc-pVTZ               16       59   6s5p3d2f
 O                        aug-cc-pVTZ               14       55   5s4p3d2f


  Caching 1-el integrals 

            General Information
            -------------------
          SCF calculation type: DFT
          Wavefunction type:  closed shell.
          No. of atoms     :     5
          No. of electrons :    50
           Alpha electrons :    25
            Beta electrons :    25
          Charge           :    -1
          Spin multiplicity:     1
          Use of symmetry is: off; symmetry adaption is: off
          Maximum number of iterations: 200
          AO basis - number of functions:   279
                     number of shells:    72
          Convergence on energy requested:  1.00D-06
          Convergence on density requested:  1.00D-05
          Convergence on gradient requested:  5.00D-04

              XC Information
              --------------
          PerdewBurkeErnzerhof Exchange Functional  1.000          
            Perdew 1991 LDA Correlation Functional  1.000 local    
           PerdewBurkeErnz. Correlation Functional  1.000 non-local

             Grid Information
             ----------------
          Grid used for XC integration:  medium    
          Radial quadrature: Mura-Knowles        
          Angular quadrature: Lebedev. 
          Tag              B.-S. Rad. Rad. Pts. Rad. Cut. Ang. Pts.
          ---              ---------- --------- --------- ---------
          Cl                  1.00       88          10.0       590
          O                   0.60       49          11.0       434
          Grid pruning is: on 
          Number of quadrature shells:   284
          Spatial weights used:  Erf1

          Convergence Information
          -----------------------
          Convergence aids based upon iterative change in 
          total energy or number of iterations. 
          Levelshifting, if invoked, occurs when the 
          HOMO/LUMO gap drops below (HL_TOL):  1.00D-02
          DIIS, if invoked, will attempt to extrapolate 
          using up to (NFOCK): 10 stored Fock matrices.

                    Damping(40%)  Levelshifting(0.0)       DIIS
                  --------------- ------------------- ---------------
          dE  on:    start            0.00D+00            start   
          dE off:  200 iters          0.00D+00          200 iters 


      Screening Tolerance Information
      -------------------------------
          Density screening/tol_rho:  1.00D-10
          AO Gaussian exp screening on grid/accAOfunc:  14
          CD Gaussian exp screening on grid/accCDfunc:  20
          XC Gaussian exp screening on grid/accXCfunc:  20
          Schwarz screening/accCoul:  1.00D-08


 Forcing the number of linearly dependent vectors to be  0

      Superposition of Atomic Density Guess
      -------------------------------------

 Sum of atomic energies:        -758.61166114
   Time after variat. SCF:      0.6
   Time prior to 1st pass:      0.6

 Grid_pts file          = /jet/home/hmt47/nwchem_scratch//dft.gridpts.00
 Record size in doubles =  12289        No. of grid_pts per rec  =   3070
 Max. records in memory =      5        Max. recs in file   =  67550051

 Grid integrated density:      48.999999349296
 Requested integration accuracy:   0.10E-05

           Memory utilization after 1st SCF pass: 
           Heap Space remaining (MW):       33.36            33363910
          Stack Space remaining (MW):       67.11            67107364

   convergence    iter        energy       DeltaE   RMS-Dens  Diis-err    time
 ---------------- ----- ----------------- --------- --------- ---------  ------
 d=40,ls=0.0,diis     1   -761.9805455100 -1.04D+03  1.02D-02  6.69D+01     1.4
 Grid integrated density:      49.599998615998
 Requested integration accuracy:   0.10E-05
 d=40,ls=0.0,diis     2   -761.0635156668  9.17D-01  8.73D-03  1.22D+01     4.4
 Grid integrated density:      49.839999217968
 Requested integration accuracy:   0.10E-05
 d=40,ls=0.0,diis     3   -760.1328002008  9.31D-01  2.92D-03  6.22D+00     7.2
 Grid integrated density:      49.935998910517
 Requested integration accuracy:   0.10E-05
 d=40,ls=0.0,diis     4   -760.4693064142 -3.37D-01  1.30D-03  1.20D+00     9.8
 Grid integrated density:      49.974398779121
 Requested integration accuracy:   0.10E-05
 d=40,ls=0.0,diis     5   -760.5375844478 -6.83D-02  6.37D-04  3.00D-01    12.5
 Grid integrated density:      49.989758682471
 Requested integration accuracy:   0.10E-05
  Resetting Diis
 d=40,ls=0.0,diis     6   -760.5606625562 -2.31D-02  2.75D-04  7.74D-02    15.3
 Grid integrated density:      49.995903024211
 Requested integration accuracy:   0.10E-05
 d=40,ls=0.0,diis     7   -760.5690283136 -8.37D-03  4.61D-04  1.81D-02    18.0
 Grid integrated density:      49.998360576696
 Requested integration accuracy:   0.10E-05
 d=40,ls=0.0,diis     8   -760.5696830509 -6.55D-04  1.47D-04  1.76D-02    20.8
 Grid integrated density:      49.999343629209
 Requested integration accuracy:   0.10E-05
 d=40,ls=0.0,diis     9   -760.5721207108 -2.44D-03  6.68D-05  3.21D-03    23.7
 Grid integrated density:      49.999736849632
 Requested integration accuracy:   0.10E-05
 d=40,ls=0.0,diis    10   -760.5729232918 -8.03D-04  2.82D-05  5.80D-04    26.6
 Grid integrated density:      49.999894139126
 Requested integration accuracy:   0.10E-05
 d=40,ls=0.0,diis    11   -760.5732172462 -2.94D-04  1.14D-05  9.14D-05    29.1
 d=40,ls=0.0,diis    12   -760.5733281513 -1.11D-04  4.46D-06  1.43D-05    31.8
 d=40,ls=0.0,diis    13   -760.5733714416 -4.33D-05  1.77D-06  2.31D-06    34.6
 d=40,ls=0.0,diis    14   -760.5733885978 -1.72D-05  7.12D-07  3.75D-07    37.3
 d=40,ls=0.0,diis    15   -760.5733954346 -6.84D-06  2.91D-07  6.17D-08    40.0
 d=40,ls=0.0,diis    16   -760.5733981652 -2.73D-06  1.28D-07  1.03D-08    43.0
 d=40,ls=0.0,diis    17   -760.5733992567 -1.09D-06  4.85D-08  2.00D-09    45.9
 d=40,ls=0.0,diis    18   -760.5733996932 -4.37D-07  3.47D-08  6.03D-10    48.4


         Total DFT energy =     -760.573399693206
      One electron energy =    -1612.968398451992
           Coulomb energy =      635.597434160422
    Exchange-Corr. energy =      -62.385710581046
 Nuclear repulsion energy =      279.183275179411

 Numeric. integr. density =       49.999998826665

     Total iterative time =     47.9s



                       DFT Final Molecular Orbital Analysis
                       ------------------------------------

 Vector    1  Occ=2.000000D+00  E=-1.008416D+02
              MO Center=  6.5D-09, -5.5D-09,  5.1D-08, r^2= 3.1D-03
   Bfn.  Coefficient  Atom+Function         Bfn.  Coefficient  Atom+Function  
  ----- ------------  ---------------      ----- ------------  ---------------
     1      1.004527  1 Cl s                  5     -0.118109  1 Cl s          
     3      0.034659  1 Cl s                  2      0.027588  1 Cl s          

 Vector    2  Occ=2.000000D+00  E=-1.858322D+01
              MO Center=  1.9D-02, -1.9D-02,  1.4D+00, r^2= 1.5D-02
   Bfn.  Coefficient  Atom+Function         Bfn.  Coefficient  Atom+Function  
  ----- ------------  ---------------      ----- ------------  ---------------
   225      0.978449  5 O  s                227      0.063193  5 O  s          
     6      0.049911  1 Cl s                228     -0.038131  5 O  s          
    18     -0.035045  1 Cl pz               229     -0.032034  5 O  s          

 Vector    3  Occ=2.000000D+00  E=-1.857472D+01
              MO Center= -1.2D+00,  7.2D-01, -4.8D-01, r^2= 1.5D-02
   Bfn.  Coefficient  Atom+Function         Bfn.  Coefficient  Atom+Function  
  ----- ------------  ---------------      ----- ------------  ---------------
   115      0.978357  3 O  s                117      0.062830  3 O  s          
     6      0.050485  1 Cl s                118     -0.037534  3 O  s          
   119     -0.031947  3 O  s                 16      0.028674  1 Cl px         

 Vector    4  Occ=2.000000D+00  E=-1.857333D+01
              MO Center=  1.2D+00,  6.9D-01, -5.1D-01, r^2= 1.6D-02
   Bfn.  Coefficient  Atom+Function         Bfn.  Coefficient  Atom+Function  
  ----- ------------  ---------------      ----- ------------  ---------------
    60      0.978303  2 O  s                 62      0.062802  2 O  s          
     6      0.050386  1 Cl s                 63     -0.037725  2 O  s          
    64     -0.031890  2 O  s                 16     -0.028936  1 Cl px         

 Vector    5  Occ=2.000000D+00  E=-1.857276D+01
              MO Center= -2.2D-02, -1.4D+00, -5.2D-01, r^2= 1.6D-02
   Bfn.  Coefficient  Atom+Function         Bfn.  Coefficient  Atom+Function  
  ----- ------------  ---------------      ----- ------------  ---------------
   170      0.978296  4 O  s                172      0.062781  4 O  s          
     6      0.049380  1 Cl s                173     -0.037564  4 O  s          
    17      0.033200  1 Cl py               174     -0.031661  4 O  s          

 Vector    6  Occ=2.000000D+00  E=-9.276981D+00
              MO Center= -1.2D-05,  1.3D-05,  1.6D-04, r^2= 6.6D-02
   Bfn.  Coefficient  Atom+Function         Bfn.  Coefficient  Atom+Function  
  ----- ------------  ---------------      ----- ------------  ---------------
     2      0.887316  1 Cl s                  4      0.118966  1 Cl s          
     3     -0.052625  1 Cl s                  5      0.045100  1 Cl s          

 Vector    7  Occ=2.000000D+00  E=-7.100865D+00
              MO Center= -8.7D-06,  8.7D-06, -8.1D-05, r^2= 5.8D-02
   Bfn.  Coefficient  Atom+Function         Bfn.  Coefficient  Atom+Function  
  ----- ------------  ---------------      ----- ------------  ---------------
     9      1.022565  1 Cl pz                12      0.114700  1 Cl pz         
   238     -0.052059  5 O  pz                 7      0.049587  1 Cl px         
     8     -0.049669  1 Cl py                18     -0.041617  1 Cl pz         
    42     -0.040833  1 Cl fxxz              47     -0.040935  1 Cl fyyz       
    57     -0.040878  1 Cl fyyz              52     -0.040163  1 Cl fxxz       

 Vector    8  Occ=2.000000D+00  E=-7.100577D+00
              MO Center=  5.5D-06,  1.0D-05, -8.0D-06, r^2= 5.8D-02
   Bfn.  Coefficient  Atom+Function         Bfn.  Coefficient  Atom+Function  
  ----- ------------  ---------------      ----- ------------  ---------------
     7      0.947907  1 Cl px                 8     -0.379082  1 Cl py         
    10      0.102530  1 Cl px                 9     -0.064494  1 Cl pz         
    11     -0.041002  1 Cl py                45     -0.036920  1 Cl fxzz       
    55     -0.036420  1 Cl fxzz              40     -0.036047  1 Cl fxxx       
    43     -0.036047  1 Cl fxyy              16     -0.033362  1 Cl px         

 Vector    9  Occ=2.000000D+00  E=-7.100536D+00
              MO Center=  1.1D-05, -2.8D-05, -6.9D-06, r^2= 5.8D-02
   Bfn.  Coefficient  Atom+Function         Bfn.  Coefficient  Atom+Function  
  ----- ------------  ---------------      ----- ------------  ---------------
     8      0.948634  1 Cl py                 7      0.381250  1 Cl px         
    11      0.102278  1 Cl py                10      0.041106  1 Cl px         
    48     -0.036767  1 Cl fyzz             182     -0.036660  4 O  py         
    41     -0.036021  1 Cl fxxy              46     -0.036006  1 Cl fyyy       
    58     -0.035554  1 Cl fyzz              17     -0.032914  1 Cl py         

 Vector   10  Occ=2.000000D+00  E=-9.882831D-01
              MO Center= -2.7D-03,  3.3D-03,  9.2D-02, r^2= 1.1D+00
   Bfn.  Coefficient  Atom+Function         Bfn.  Coefficient  Atom+Function  
  ----- ------------  ---------------      ----- ------------  ---------------
     3      0.482143  1 Cl s                226      0.174515  5 O  s          
   228      0.148098  5 O  s                  5      0.147326  1 Cl s          
   116      0.134653  3 O  s                 61      0.131826  2 O  s          
   171      0.130507  4 O  s                118      0.113940  3 O  s          
    63      0.111945  2 O  s                173      0.110965  4 O  s          

 Vector   11  Occ=2.000000D+00  E=-7.729202D-01
              MO Center= -2.6D-02,  2.4D-02,  5.5D-01, r^2= 1.4D+00
   Bfn.  Coefficient  Atom+Function         Bfn.  Coefficient  Atom+Function  
  ----- ------------  ---------------      ----- ------------  ---------------
   226      0.369355  5 O  s                228      0.284962  5 O  s          
    15      0.180753  1 Cl pz               116     -0.160174  3 O  s          
    61     -0.134498  2 O  s                171     -0.125489  4 O  s          
     9     -0.123454  1 Cl pz               118     -0.119538  3 O  s          
    63     -0.099984  2 O  s                227      0.100366  5 O  s          

 Vector   12  Occ=2.000000D+00  E=-7.506021D-01
              MO Center= -2.7D-01,  3.6D-01, -3.4D-01, r^2= 1.5D+00
   Bfn.  Coefficient  Atom+Function         Bfn.  Coefficient  Atom+Function  
  ----- ------------  ---------------      ----- ------------  ---------------
   116      0.349372  3 O  s                118      0.266187  3 O  s          
    61     -0.240039  2 O  s                 63     -0.182349  2 O  s          
    13     -0.163842  1 Cl px               171     -0.134102  4 O  s          
     7      0.108776  1 Cl px               173     -0.101746  4 O  s          
   117      0.096080  3 O  s                 23     -0.067677  1 Cl dxy        

 Vector   13  Occ=2.000000D+00  E=-7.480329D-01
              MO Center=  3.1D-01, -4.0D-01, -3.6D-01, r^2= 1.4D+00
   Bfn.  Coefficient  Atom+Function         Bfn.  Coefficient  Atom+Function  
  ----- ------------  ---------------      ----- ------------  ---------------
   171      0.344389  4 O  s                 61     -0.276029  2 O  s          
   173      0.261569  4 O  s                 63     -0.209937  2 O  s          
    14     -0.163569  1 Cl py                 8      0.108274  1 Cl py         
   172      0.094861  4 O  s                 62     -0.075989  2 O  s          
   179      0.076255  4 O  py               176      0.065443  4 O  py         

 Vector   14  Occ=2.000000D+00  E=-3.988565D-01
              MO Center= -2.2D-03,  2.2D-03,  8.8D-03, r^2= 2.9D+00
   Bfn.  Coefficient  Atom+Function         Bfn.  Coefficient  Atom+Function  
  ----- ------------  ---------------      ----- ------------  ---------------
     3      0.395307  1 Cl s                  6      0.296462  1 Cl s          
     5      0.274572  1 Cl s                226     -0.221809  5 O  s          
   116     -0.219643  3 O  s                 61     -0.218344  2 O  s          
   171     -0.217894  4 O  s                228     -0.211441  5 O  s          
   118     -0.208998  3 O  s                 63     -0.207487  2 O  s          

 Vector   15  Occ=2.000000D+00  E=-2.986442D-01
              MO Center= -3.9D-01,  9.3D-02, -2.5D-01, r^2= 2.4D+00
   Bfn.  Coefficient  Atom+Function         Bfn.  Coefficient  Atom+Function  
  ----- ------------  ---------------      ----- ------------  ---------------
   116      0.222996  3 O  s                118      0.216606  3 O  s          
    13      0.183164  1 Cl px                14     -0.150023  1 Cl py         
    10      0.144482  1 Cl px               171     -0.143824  4 O  s          
   173     -0.141106  4 O  s                123     -0.130704  3 O  px         
   120     -0.129387  3 O  px                11     -0.118702  1 Cl py         

 Vector   16  Occ=2.000000D+00  E=-2.986080D-01
              MO Center=  3.9D-01, -9.3D-02, -2.6D-01, r^2= 2.4D+00
   Bfn.  Coefficient  Atom+Function         Bfn.  Coefficient  Atom+Function  
  ----- ------------  ---------------      ----- ------------  ---------------
    61      0.211359  2 O  s                 63      0.206124  2 O  s          
    14     -0.183671  1 Cl py               171     -0.178284  4 O  s          
   173     -0.174188  4 O  s                 13     -0.150149  1 Cl px         
    11     -0.145836  1 Cl py                68      0.131051  2 O  px         
    65      0.130071  2 O  px                10     -0.118859  1 Cl px         

 Vector   17  Occ=2.000000D+00  E=-2.964195D-01
              MO Center= -2.5D-04,  2.4D-03,  6.5D-01, r^2= 2.2D+00
   Bfn.  Coefficient  Atom+Function         Bfn.  Coefficient  Atom+Function  
  ----- ------------  ---------------      ----- ------------  ---------------
   226     -0.242006  5 O  s                 15      0.232540  1 Cl pz         
   228     -0.226862  5 O  s                235     -0.200589  5 O  pz         
   232     -0.195689  5 O  pz                12      0.172490  1 Cl pz         
    18      0.126564  1 Cl pz                 9     -0.104429  1 Cl pz         
   229     -0.097973  5 O  s                118      0.090537  3 O  s          

 Vector   18  Occ=2.000000D+00  E=-1.445507D-01
              MO Center= -1.4D-01,  1.6D-01,  4.3D-01, r^2= 2.3D+00
   Bfn.  Coefficient  Atom+Function         Bfn.  Coefficient  Atom+Function  
  ----- ------------  ---------------      ----- ------------  ---------------
   233      0.234121  5 O  px               230      0.231461  5 O  px         
    24      0.163922  1 Cl dxz               30      0.153937  1 Cl dxz        
   236      0.134882  5 O  px               122     -0.128095  3 O  pz         
   125     -0.128139  3 O  pz                36      0.115560  1 Cl dxz        
   123      0.108648  3 O  px                69      0.107669  2 O  py         

 Vector   19  Occ=2.000000D+00  E=-1.442583D-01
              MO Center=  1.2D-01, -1.3D-01,  4.0D-01, r^2= 2.4D+00
   Bfn.  Coefficient  Atom+Function         Bfn.  Coefficient  Atom+Function  
  ----- ------------  ---------------      ----- ------------  ---------------
   234      0.231669  5 O  py               231      0.229025  5 O  py         
    26      0.160372  1 Cl dyz               32      0.152144  1 Cl dyz        
   237      0.132236  5 O  py               179      0.124630  4 O  py         
   176      0.122137  4 O  py                68      0.121377  2 O  px         
    65      0.119402  2 O  px                38      0.114836  1 Cl dyz        

 Vector   20  Occ=2.000000D+00  E=-1.311470D-01
              MO Center= -3.5D-02,  4.0D-02, -1.3D-01, r^2= 2.7D+00
   Bfn.  Coefficient  Atom+Function         Bfn.  Coefficient  Atom+Function  
  ----- ------------  ---------------      ----- ------------  ---------------
   125      0.191536  3 O  pz               122      0.190204  3 O  pz         
   235      0.184463  5 O  pz               232      0.181235  5 O  pz         
    70      0.173799  2 O  pz                67      0.172854  2 O  pz         
   177      0.166430  4 O  pz               180      0.167192  4 O  pz         
   128      0.119119  3 O  pz                73      0.114111  2 O  pz         

 Vector   21  Occ=2.000000D+00  E=-1.293159D-01
              MO Center= -2.1D-01,  1.4D-01, -3.2D-01, r^2= 2.6D+00
   Bfn.  Coefficient  Atom+Function         Bfn.  Coefficient  Atom+Function  
  ----- ------------  ---------------      ----- ------------  ---------------
   124      0.202235  3 O  py               121      0.200571  3 O  py         
    69      0.174421  2 O  py                66      0.172205  2 O  py         
   179      0.143622  4 O  py               176      0.140398  4 O  py         
   127      0.131344  3 O  py               123      0.104470  3 O  px         
   120      0.103860  3 O  px               178      0.096251  4 O  px         

 Vector   22  Occ=2.000000D+00  E=-1.289916D-01
              MO Center=  2.6D-01, -2.0D-01, -3.6D-01, r^2= 2.5D+00
   Bfn.  Coefficient  Atom+Function         Bfn.  Coefficient  Atom+Function  
  ----- ------------  ---------------      ----- ------------  ---------------
   178      0.205502  4 O  px               175      0.204103  4 O  px         
    68      0.166048  2 O  px                23     -0.164047  1 Cl dxy        
    65      0.163799  2 O  px                29     -0.141212  1 Cl dxy        
   123      0.139093  3 O  px               120      0.136208  3 O  px         
   181      0.134748  4 O  px                66     -0.120417  2 O  py         

 Vector   23  Occ=2.000000D+00  E=-5.357955D-02
              MO Center= -2.3D-01,  2.9D-01,  7.3D-02, r^2= 2.6D+00
   Bfn.  Coefficient  Atom+Function         Bfn.  Coefficient  Atom+Function  
  ----- ------------  ---------------      ----- ------------  ---------------
   125      0.246314  3 O  pz               122      0.240575  3 O  pz         
   233      0.213749  5 O  px               230      0.207418  5 O  px         
   128      0.191284  3 O  pz               236      0.171761  5 O  px         
    70     -0.157307  2 O  pz                67     -0.153776  2 O  pz         
    73     -0.121816  2 O  pz               180     -0.092132  4 O  pz         

 Vector   24  Occ=2.000000D+00  E=-5.265102D-02
              MO Center=  2.3D-01, -2.9D-01,  5.1D-02, r^2= 2.6D+00
   Bfn.  Coefficient  Atom+Function         Bfn.  Coefficient  Atom+Function  
  ----- ------------  ---------------      ----- ------------  ---------------
   180      0.234984  4 O  pz               177      0.229711  4 O  pz         
   234      0.212034  5 O  py               231      0.205689  5 O  py         
    70     -0.195648  2 O  pz                67     -0.191182  2 O  pz         
   183      0.182173  4 O  pz               237      0.170889  5 O  py         
    73     -0.151849  2 O  pz               124     -0.092513  3 O  py         

 Vector   25  Occ=2.000000D+00  E=-4.914775D-02
              MO Center=  3.6D-02, -3.6D-02, -4.9D-01, r^2= 2.6D+00
   Bfn.  Coefficient  Atom+Function         Bfn.  Coefficient  Atom+Function  
  ----- ------------  ---------------      ----- ------------  ---------------
   178      0.245044  4 O  px               175      0.239610  4 O  px         
    69      0.213556  2 O  py                66      0.208819  2 O  py         
   124     -0.198632  3 O  py               121     -0.194037  3 O  py         
   181      0.194224  4 O  px                72      0.169695  2 O  py         
   127     -0.158050  3 O  py               123     -0.116259  3 O  px         

 Vector   26  Occ=0.000000D+00  E= 1.388607D-01
              MO Center= -8.7D-03,  9.2D-03,  5.8D-02, r^2= 1.3D+01
   Bfn.  Coefficient  Atom+Function         Bfn.  Coefficient  Atom+Function  
  ----- ------------  ---------------      ----- ------------  ---------------
     6     16.576460  1 Cl s                229     -4.731784  5 O  s          
   119     -4.421200  3 O  s                 64     -4.372776  2 O  s          
   174     -4.352764  4 O  s                241      1.331532  5 O  pz         
   185     -1.208128  4 O  py                74      1.058283  2 O  px         
   129     -1.057543  3 O  px               130      0.629717  3 O  py         

 Vector   27  Occ=0.000000D+00  E= 1.695276D-01
              MO Center= -4.6D-01,  2.9D-01,  8.9D-02, r^2= 1.6D+01
   Bfn.  Coefficient  Atom+Function         Bfn.  Coefficient  Atom+Function  
  ----- ------------  ---------------      ----- ------------  ---------------
   119      4.471964  3 O  s                229     -2.961894  5 O  s          
    19      2.617469  1 Cl px                21      2.229675  1 Cl pz         
    16      2.067475  1 Cl px                18      1.890153  1 Cl pz         
    20     -1.403338  1 Cl py               118      1.383051  3 O  s          
   126      1.122929  3 O  px                17     -1.111026  1 Cl py         

 Vector   28  Occ=0.000000D+00  E= 1.695636D-01
              MO Center=  2.3D-01,  7.8D-02,  2.5D-01, r^2= 1.6D+01
   Bfn.  Coefficient  Atom+Function         Bfn.  Coefficient  Atom+Function  
  ----- ------------  ---------------      ----- ------------  ---------------
   229     -3.623181  5 O  s                 64      3.363324  2 O  s          
    21      2.854505  1 Cl pz                18      2.398222  1 Cl pz         
    19     -2.290021  1 Cl px               174      1.905562  4 O  s          
    16     -1.793570  1 Cl px               119     -1.378508  3 O  s          
   228     -1.239850  5 O  s                238      1.154781  5 O  pz         

 Vector   29  Occ=0.000000D+00  E= 1.696042D-01
              MO Center=  2.3D-01, -3.6D-01, -2.5D-01, r^2= 1.6D+01
   Bfn.  Coefficient  Atom+Function         Bfn.  Coefficient  Atom+Function  
  ----- ------------  ---------------      ----- ------------  ---------------
   174      4.293102  4 O  s                 20      3.444345  1 Cl py         
    64     -3.203302  2 O  s                 17      2.705753  1 Cl py         
    19      1.412572  1 Cl px               173      1.324832  4 O  s          
   182      1.233731  4 O  py                16      1.112436  1 Cl px         
    63     -1.006815  2 O  s                185      0.852507  4 O  py         

 Vector   30  Occ=0.000000D+00  E= 2.126481D-01
              MO Center=  4.2D-02, -8.1D-02, -5.8D-01, r^2= 5.2D+00
   Bfn.  Coefficient  Atom+Function         Bfn.  Coefficient  Atom+Function  
  ----- ------------  ---------------      ----- ------------  ---------------
     6     11.875860  1 Cl s                 64     -3.332720  2 O  s          
   119     -3.332216  3 O  s                174     -3.340416  4 O  s          
   229     -3.161712  5 O  s                  5     -1.996176  1 Cl s          
   241      1.262559  5 O  pz                18      1.230564  1 Cl pz         
    21     -0.801812  1 Cl pz               173      0.692827  4 O  s          

 Vector   31  Occ=0.000000D+00  E= 2.151890D-01
              MO Center=  6.9D-02,  1.3D-02, -4.1D-03, r^2= 7.8D+00
   Bfn.  Coefficient  Atom+Function         Bfn.  Coefficient  Atom+Function  
  ----- ------------  ---------------      ----- ------------  ---------------
    17      2.368661  1 Cl py                20     -1.179508  1 Cl py         
    16      0.996220  1 Cl px               185      0.989281  4 O  py         
   173      0.957649  4 O  s                  6     -0.893616  1 Cl s          
    63     -0.893357  2 O  s                182      0.754299  4 O  py         
    71      0.694000  2 O  px                74      0.668803  2 O  px         

 Vector   32  Occ=0.000000D+00  E= 2.159677D-01
              MO Center= -1.3D-01,  8.6D-02,  6.8D-03, r^2= 7.9D+00
   Bfn.  Coefficient  Atom+Function         Bfn.  Coefficient  Atom+Function  
  ----- ------------  ---------------      ----- ------------  ---------------
    16      2.433946  1 Cl px                 6      1.298276  1 Cl s          
    19     -1.209350  1 Cl px               118      1.152726  3 O  s          
    17     -1.008109  1 Cl py               129      0.839041  3 O  px         
   126      0.744819  3 O  px                63     -0.635368  2 O  s          
    74      0.626494  2 O  px                10      0.601193  1 Cl px         

 Vector   33  Occ=0.000000D+00  E= 2.255557D-01
              MO Center=  1.9D-02, -1.6D-02,  5.4D-01, r^2= 8.1D+00
   Bfn.  Coefficient  Atom+Function         Bfn.  Coefficient  Atom+Function  
  ----- ------------  ---------------      ----- ------------  ---------------
     6      7.786117  1 Cl s                 18     -2.965912  1 Cl pz         
   229     -2.152809  5 O  s                 64     -2.131738  2 O  s          
   119     -2.129508  3 O  s                174     -2.132466  4 O  s          
   228      1.748790  5 O  s                  5     -1.738512  1 Cl s          
   238     -1.407867  5 O  pz                21      1.382071  1 Cl pz         

 Vector   34  Occ=0.000000D+00  E= 2.454871D-01
              MO Center= -3.5D-02,  2.6D-02, -2.6D-02, r^2= 1.3D+01
   Bfn.  Coefficient  Atom+Function         Bfn.  Coefficient  Atom+Function  
  ----- ------------  ---------------      ----- ------------  ---------------
    38      3.043566  1 Cl dyz               36      1.386691  1 Cl dxz        
    37     -1.145354  1 Cl dyy               34      1.132805  1 Cl dxx        
    35      0.928762  1 Cl dxy              237     -0.902032  5 O  py         
   240     -0.849284  5 O  py               183      0.766059  4 O  pz         
   127      0.755003  3 O  py               130      0.753169  3 O  py         

 Vector   35  Occ=0.000000D+00  E= 2.455366D-01
              MO Center=  4.6D-02, -3.7D-02, -4.7D-02, r^2= 1.3D+01
   Bfn.  Coefficient  Atom+Function         Bfn.  Coefficient  Atom+Function  
  ----- ------------  ---------------      ----- ------------  ---------------
    36      3.121143  1 Cl dxz               35      2.147109  1 Cl dxy        
    38     -1.418212  1 Cl dyz              236     -0.896944  5 O  px         
   128      0.849579  3 O  pz               239     -0.841500  5 O  px         
   131      0.819091  3 O  pz               181      0.807257  4 O  px         
   184      0.810197  4 O  px                72     -0.705200  2 O  py         

 Vector   36  Occ=0.000000D+00  E= 2.613097D-01
              MO Center=  1.1D-01, -1.2D-01, -1.4D-01, r^2= 8.6D+00
   Bfn.  Coefficient  Atom+Function         Bfn.  Coefficient  Atom+Function  
  ----- ------------  ---------------      ----- ------------  ---------------
    17      4.762931  1 Cl py               173      2.405130  4 O  s          
    20     -2.126463  1 Cl py               182      2.088177  4 O  py         
    63     -1.930117  2 O  s                185      1.908945  4 O  py         
    16      1.872595  1 Cl px                71      1.523150  2 O  px         
    38     -1.357784  1 Cl dyz              202      1.238981  4 O  dyy        

 Vector   37  Occ=0.000000D+00  E= 2.622510D-01
              MO Center= -1.2D-01,  1.3D-01, -1.2D-01, r^2= 8.4D+00
   Bfn.  Coefficient  Atom+Function         Bfn.  Coefficient  Atom+Function  
  ----- ------------  ---------------      ----- ------------  ---------------
    16      4.705798  1 Cl px               118      2.370031  3 O  s          
    19     -2.096212  1 Cl px                17     -1.804336  1 Cl py         
    35      1.770102  1 Cl dxy              126      1.763677  3 O  px         
   129      1.723643  3 O  px                63     -1.699683  2 O  s          
    36     -1.312398  1 Cl dxz               74      1.307424  2 O  px         

 Vector   38  Occ=0.000000D+00  E= 2.663643D-01
              MO Center= -7.7D-03,  4.3D-03,  1.8D-01, r^2= 7.1D+00
   Bfn.  Coefficient  Atom+Function         Bfn.  Coefficient  Atom+Function  
  ----- ------------  ---------------      ----- ------------  ---------------
    18      4.881431  1 Cl pz               228     -2.696313  5 O  s          
   238      2.494022  5 O  pz               241      2.271646  5 O  pz         
    21     -2.150780  1 Cl pz               229     -1.983425  5 O  s          
     6      1.840886  1 Cl s                259     -1.478183  5 O  dzz        
    39      1.361359  1 Cl dzz              118      1.228231  3 O  s          

 Vector   39  Occ=0.000000D+00  E= 2.829051D-01
              MO Center=  2.9D-02, -2.8D-02, -7.9D-02, r^2= 1.2D+01
   Bfn.  Coefficient  Atom+Function         Bfn.  Coefficient  Atom+Function  
  ----- ------------  ---------------      ----- ------------  ---------------
     5      6.019488  1 Cl s                  6      3.634719  1 Cl s          
   229     -2.485143  5 O  s                 64     -2.322540  2 O  s          
   119     -2.329846  3 O  s                174     -2.316816  4 O  s          
    37      1.793431  1 Cl dyy               34      1.768041  1 Cl dxx        
    39      1.702195  1 Cl dzz              185     -1.392601  4 O  py         

 Vector   40  Occ=0.000000D+00  E= 3.085202D-01
              MO Center= -2.4D-01,  2.7D-01,  2.2D-01, r^2= 1.3D+01
   Bfn.  Coefficient  Atom+Function         Bfn.  Coefficient  Atom+Function  
  ----- ------------  ---------------      ----- ------------  ---------------
   131      1.967814  3 O  pz               239      1.967383  5 O  px         
    76     -1.163976  2 O  pz               240     -0.853310  5 O  py         
   186     -0.733768  4 O  pz                74     -0.634516  2 O  px         
   129     -0.591883  3 O  px               184     -0.495823  4 O  px         
   128     -0.397236  3 O  pz               236     -0.370744  5 O  px         

 Vector   41  Occ=0.000000D+00  E= 3.086039D-01
              MO Center=  1.2D-01, -2.0D-01,  1.4D-01, r^2= 1.4D+01
   Bfn.  Coefficient  Atom+Function         Bfn.  Coefficient  Atom+Function  
  ----- ------------  ---------------      ----- ------------  ---------------
   240      1.896585  5 O  py               186      1.736462  4 O  pz         
    76     -1.486351  2 O  pz               130     -1.027841  3 O  py         
   239      0.787779  5 O  px               185     -0.580215  4 O  py         
   129     -0.520540  3 O  px                74     -0.508505  2 O  px         
   183     -0.358760  4 O  pz               237     -0.355591  5 O  py         

 Vector   42  Occ=0.000000D+00  E= 3.086699D-01
              MO Center=  1.3D-01, -7.9D-02, -4.4D-01, r^2= 1.3D+01
   Bfn.  Coefficient  Atom+Function         Bfn.  Coefficient  Atom+Function  
  ----- ------------  ---------------      ----- ------------  ---------------
   184      1.939923  4 O  px                75      1.752750  2 O  py         
   130     -1.446545  3 O  py               129     -0.857378  3 O  px         
    74     -0.816317  2 O  px                76      0.522970  2 O  pz         
   240     -0.520526  5 O  py               186     -0.490734  4 O  pz         
   181     -0.411425  4 O  px                72     -0.382069  2 O  py         

 Vector   43  Occ=0.000000D+00  E= 3.541712D-01
              MO Center= -1.3D-01,  2.2D-01,  1.6D-01, r^2= 1.5D+01
   Bfn.  Coefficient  Atom+Function         Bfn.  Coefficient  Atom+Function  
  ----- ------------  ---------------      ----- ------------  ---------------
    20     10.048027  1 Cl py                19      3.579638  1 Cl px         
   240     -3.532665  5 O  py               130     -3.369049  3 O  py         
   174      3.334310  4 O  s                 75     -3.180632  2 O  py         
   185     -2.765998  4 O  py                64     -2.600498  2 O  s          
    17      1.659693  1 Cl py               129     -1.325246  3 O  px         

 Vector   44  Occ=0.000000D+00  E= 3.542342D-01
              MO Center=  7.1D-02, -1.7D-01,  1.5D-01, r^2= 1.5D+01
   Bfn.  Coefficient  Atom+Function         Bfn.  Coefficient  Atom+Function  
  ----- ------------  ---------------      ----- ------------  ---------------
    19     10.035508  1 Cl px               239     -3.529147  5 O  px         
    20     -3.498345  1 Cl py               184     -3.416707  4 O  px         
   119      3.274761  3 O  s                 74     -3.021757  2 O  px         
   129     -2.901479  3 O  px                64     -2.350513  2 O  s          
    16      1.584725  1 Cl px                75      1.409061  2 O  py         

 Vector   45  Occ=0.000000D+00  E= 3.546350D-01
              MO Center=  4.3D-02, -3.7D-02, -2.6D-01, r^2= 1.5D+01
   Bfn.  Coefficient  Atom+Function         Bfn.  Coefficient  Atom+Function  
  ----- ------------  ---------------      ----- ------------  ---------------
    21     10.658222  1 Cl pz               229     -3.742166  5 O  s          
    76     -3.573336  2 O  pz               186     -3.581221  4 O  pz         
   131     -3.539505  3 O  pz               241     -3.078549  5 O  pz         
    18      1.640856  1 Cl pz               119      1.409599  3 O  s          
    19      1.101149  1 Cl px                20     -1.021448  1 Cl py         

 Vector   46  Occ=0.000000D+00  E= 3.874567D-01
              MO Center= -6.2D-01,  5.5D-01, -5.3D-01, r^2= 1.1D+01
   Bfn.  Coefficient  Atom+Function         Bfn.  Coefficient  Atom+Function  
  ----- ------------  ---------------      ----- ------------  ---------------
   119      9.350636  3 O  s                 16      5.369225  1 Cl px         
    64     -5.151152  2 O  s                174     -3.427845  4 O  s          
   129      3.395865  3 O  px                74      2.466080  2 O  px         
    17     -2.449969  1 Cl py               126      2.050611  3 O  px         
   130     -1.843301  3 O  py                19     -1.832021  1 Cl px         

 Vector   47  Occ=0.000000D+00  E= 3.878861D-01
              MO Center=  5.9D-01, -4.3D-01, -5.5D-01, r^2= 1.1D+01
   Bfn.  Coefficient  Atom+Function         Bfn.  Coefficient  Atom+Function  
  ----- ------------  ---------------      ----- ------------  ---------------
   174     -8.056104  4 O  s                 64      7.635700  2 O  s          
    17     -5.320036  1 Cl py               185     -3.409503  4 O  py         
    16     -2.453664  1 Cl px                74     -2.332837  2 O  px         
    75     -2.307548  2 O  py               182     -2.042442  4 O  py         
    20      1.917602  1 Cl py                71     -1.827336  2 O  px         

 Vector   48  Occ=0.000000D+00  E= 3.881124D-01
              MO Center=  4.4D-02, -1.3D-01,  1.1D+00, r^2= 1.1D+01
   Bfn.  Coefficient  Atom+Function         Bfn.  Coefficient  Atom+Function  
  ----- ------------  ---------------      ----- ------------  ---------------
   229     10.415869  5 O  s                 18     -6.155072  1 Cl pz         
   241     -4.309705  5 O  pz               174     -3.869769  4 O  s          
    64     -2.732147  2 O  s                238     -2.704327  5 O  pz         
   119     -2.198478  3 O  s                 21      2.161612  1 Cl pz         
   228      1.950595  5 O  s                186     -1.877597  4 O  pz         

 Vector   49  Occ=0.000000D+00  E= 3.989192D-01
              MO Center=  1.7D-02, -1.8D-02, -1.3D-01, r^2= 1.2D+01
   Bfn.  Coefficient  Atom+Function         Bfn.  Coefficient  Atom+Function  
  ----- ------------  ---------------      ----- ------------  ---------------
     6     44.128884  1 Cl s                 64    -12.992222  2 O  s          
   119    -13.002390  3 O  s                174    -12.990898  4 O  s          
   229    -12.957154  5 O  s                  5     -8.469781  1 Cl s          
   228      2.228719  5 O  s                 63      2.032821  2 O  s          
   118      2.039929  3 O  s                173      2.028262  4 O  s          

 Vector   50  Occ=0.000000D+00  E= 5.135009D-01
              MO Center= -3.6D-01,  4.1D-01,  4.2D-01, r^2= 5.0D+00
   Bfn.  Coefficient  Atom+Function         Bfn.  Coefficient  Atom+Function  
  ----- ------------  ---------------      ----- ------------  ---------------
   173      3.481791  4 O  s                 38     -3.151490  1 Cl dyz        
    63     -2.912699  2 O  s                 37     -2.258455  1 Cl dyy        
    34      2.184937  1 Cl dxx              182      2.035023  4 O  py         
    35      1.657947  1 Cl dxy               56      1.429246  1 Cl fyyy       
    51      1.420887  1 Cl fxxy              36     -1.320471  1 Cl dxz        

 Vector   51  Occ=0.000000D+00  E= 5.147160D-01
              MO Center=  3.4D-01, -3.8D-01,  4.1D-01, r^2= 5.0D+00
   Bfn.  Coefficient  Atom+Function         Bfn.  Coefficient  Atom+Function  
  ----- ------------  ---------------      ----- ------------  ---------------
    35      4.576365  1 Cl dxy              118      3.646530  3 O  s          
    36     -2.998758  1 Cl dxz               63     -2.377366  2 O  s          
   126      1.871058  3 O  px                71      1.469116  2 O  px         
   173     -1.462833  4 O  s                 50      1.431061  1 Cl fxxx       
    53      1.437801  1 Cl fxyy              54     -1.263061  1 Cl fxyz       

 Vector   52  Occ=0.000000D+00  E= 5.213437D-01
              MO Center=  1.6D-02, -1.4D-02, -7.4D-01, r^2= 4.9D+00
   Bfn.  Coefficient  Atom+Function         Bfn.  Coefficient  Atom+Function  
  ----- ------------  ---------------      ----- ------------  ---------------
   228      4.668350  5 O  s                 39     -3.294914  1 Cl dzz        
   238     -2.628615  5 O  pz                34      2.103579  1 Cl dxx        
    37      1.972487  1 Cl dyy               59     -1.837655  1 Cl fzzz       
   118     -1.759652  3 O  s                 63     -1.539803  2 O  s          
    18     -1.465035  1 Cl pz               173     -1.465206  4 O  s          

 Vector   53  Occ=0.000000D+00  E= 5.466511D-01
              MO Center= -1.5D-02,  1.4D-02,  7.8D-02, r^2= 8.5D+00
   Bfn.  Coefficient  Atom+Function         Bfn.  Coefficient  Atom+Function  
  ----- ------------  ---------------      ----- ------------  ---------------
     5     13.481973  1 Cl s                  6      6.273309  1 Cl s          
   229     -4.807321  5 O  s                228     -4.631711  5 O  s          
    39      4.576885  1 Cl dzz              119     -4.049343  3 O  s          
    64     -3.919355  2 O  s                174     -3.869309  4 O  s          
    34      3.822666  1 Cl dxx               37      3.681956  1 Cl dyy        

 Vector   54  Occ=0.000000D+00  E= 5.672051D-01
              MO Center= -5.9D-03,  1.3D-03, -1.0D-02, r^2= 3.4D+00
   Bfn.  Coefficient  Atom+Function         Bfn.  Coefficient  Atom+Function  
  ----- ------------  ---------------      ----- ------------  ---------------
    36      4.789759  1 Cl dxz               35      2.953832  1 Cl dxy        
    38     -2.188696  1 Cl dyz              236     -1.662908  5 O  px         
   128      1.532333  3 O  pz               181      1.399730  4 O  px         
    72     -1.193415  2 O  py                73     -0.923982  2 O  pz         
   237      0.759814  5 O  py                37      0.735089  1 Cl dyy        

 Vector   55  Occ=0.000000D+00  E= 5.677983D-01
              MO Center= -9.1D-03,  1.4D-02, -3.0D-02, r^2= 3.4D+00
   Bfn.  Coefficient  Atom+Function         Bfn.  Coefficient  Atom+Function  
  ----- ------------  ---------------      ----- ------------  ---------------
    38      4.733916  1 Cl dyz               36      2.169762  1 Cl dxz        
   237     -1.619054  5 O  py                37     -1.572493  1 Cl dyy        
    34      1.488669  1 Cl dxx              127      1.312760  3 O  py         
   183      1.311150  4 O  pz                35      1.256214  1 Cl dxy        
    73     -1.157452  2 O  pz                71     -1.016051  2 O  px         

 Vector   56  Occ=0.000000D+00  E= 5.880923D-01
              MO Center=  3.1D-02, -2.6D-02,  7.2D-01, r^2= 8.0D+00
   Bfn.  Coefficient  Atom+Function         Bfn.  Coefficient  Atom+Function  
  ----- ------------  ---------------      ----- ------------  ---------------
    18     20.105116  1 Cl pz               228    -12.392839  5 O  s          
   238     10.207764  5 O  pz               259     -5.606348  5 O  dzz        
    39      5.011457  1 Cl dzz              229     -5.010305  5 O  s          
    63      4.038094  2 O  s                173      4.041936  4 O  s          
   118      3.781223  3 O  s                182      3.703131  4 O  py         

 Vector   57  Occ=0.000000D+00  E= 5.907590D-01
              MO Center= -4.3D-01,  5.3D-01, -3.2D-01, r^2= 8.0D+00
   Bfn.  Coefficient  Atom+Function         Bfn.  Coefficient  Atom+Function  
  ----- ------------  ---------------      ----- ------------  ---------------
    16     18.010194  1 Cl px               118     10.723912  3 O  s          
    35      7.998558  1 Cl dxy              126      7.155309  3 O  px         
    17     -6.906483  1 Cl py                63     -6.836992  2 O  s          
   119      4.847336  3 O  s                127     -4.427433  3 O  py         
    71      4.317282  2 O  px               144      3.780947  3 O  dxx        

 Vector   58  Occ=0.000000D+00  E= 5.911405D-01
              MO Center=  4.4D-01, -5.4D-01, -3.3D-01, r^2= 8.0D+00
   Bfn.  Coefficient  Atom+Function         Bfn.  Coefficient  Atom+Function  
  ----- ------------  ---------------      ----- ------------  ---------------
    17     18.045133  1 Cl py               173     10.116347  4 O  s          
    63     -8.326439  2 O  s                182      7.869874  4 O  py         
    16      6.923080  1 Cl px                71      5.900297  2 O  px         
   174      4.641159  4 O  s                202      4.178637  4 O  dyy        
    34      4.006591  1 Cl dxx               37     -4.004274  1 Cl dyy        

 Vector   59  Occ=0.000000D+00  E= 6.111891D-01
              MO Center= -6.2D-02,  5.3D-02, -7.7D-02, r^2= 7.5D+00
   Bfn.  Coefficient  Atom+Function         Bfn.  Coefficient  Atom+Function  
  ----- ------------  ---------------      ----- ------------  ---------------
    38      8.996218  1 Cl dyz               36      3.967263  1 Cl dxz        
    34      2.557720  1 Cl dxx               37     -2.567754  1 Cl dyy        
    17     -2.499204  1 Cl py               237     -2.381906  5 O  py         
    71     -2.293450  2 O  px               127      2.276220  3 O  py         
    35      2.016089  1 Cl dxy              182     -2.002925  4 O  py         

 Vector   60  Occ=0.000000D+00  E= 6.116023D-01
              MO Center=  6.9D-02, -6.0D-02, -1.0D-01, r^2= 7.5D+00
   Bfn.  Coefficient  Atom+Function         Bfn.  Coefficient  Atom+Function  
  ----- ------------  ---------------      ----- ------------  ---------------
    36      9.234412  1 Cl dxz               35      4.693525  1 Cl dxy        
    38     -4.065449  1 Cl dyz               16     -2.822647  1 Cl px         
    72     -2.625039  2 O  py               181      2.568686  4 O  px         
   236     -2.355302  5 O  px               200      2.100963  4 O  dxy        
   128      1.912200  3 O  pz               256      1.801685  5 O  dxz        

 Vector   61  Occ=0.000000D+00  E= 7.783229D-01
              MO Center= -4.5D-01,  4.5D-01,  5.3D-01, r^2= 7.2D+00
   Bfn.  Coefficient  Atom+Function         Bfn.  Coefficient  Atom+Function  
  ----- ------------  ---------------      ----- ------------  ---------------
   256      1.697526  5 O  dxz              239     -1.307163  5 O  px         
   146     -1.291780  3 O  dxz               55      1.218344  1 Cl fxzz       
   131     -1.174369  3 O  pz               148      0.826426  3 O  dyz        
    54     -0.773801  1 Cl fxyz             258     -0.737068  5 O  dyz        
   275     -0.660148  5 O  fxzz              91     -0.647403  2 O  dxz        

 Vector   62  Occ=0.000000D+00  E= 7.789450D-01
              MO Center=  4.0D-01, -4.0D-01,  4.8D-01, r^2= 7.3D+00
   Bfn.  Coefficient  Atom+Function         Bfn.  Coefficient  Atom+Function  
  ----- ------------  ---------------      ----- ------------  ---------------
   258      1.663399  5 O  dyz              203     -1.342717  4 O  dyz        
   240     -1.279601  5 O  py                58      1.233317  1 Cl fyzz       
    91     -1.078303  2 O  dxz              186     -1.013878  4 O  pz         
    76      0.913418  2 O  pz               256      0.717117  5 O  dxz        
   278     -0.644140  5 O  fyzz             237      0.609899  5 O  py         

 Vector   63  Occ=0.000000D+00  E= 7.811756D-01
              MO Center=  5.7D-03,  3.4D-03, -8.4D-01, r^2= 7.0D+00
   Bfn.  Coefficient  Atom+Function         Bfn.  Coefficient  Atom+Function  
  ----- ------------  ---------------      ----- ------------  ---------------
    53      1.445371  1 Cl fxyy             200     -1.283120  4 O  dxy        
   184     -1.046032  4 O  px               201     -0.968666  4 O  dxz        
   130      0.937625  3 O  py                75     -0.917471  2 O  py         
   148      0.802813  3 O  dyz               93     -0.792377  2 O  dyz        
    90      0.686871  2 O  dxy              181      0.644719  4 O  px         

 Vector   64  Occ=0.000000D+00  E= 7.981708D-01
              MO Center=  2.8D-03,  1.9D-02, -4.6D-02, r^2= 5.6D+00
   Bfn.  Coefficient  Atom+Function         Bfn.  Coefficient  Atom+Function  
  ----- ------------  ---------------      ----- ------------  ---------------
   181      1.078256  4 O  px               201      1.070655  4 O  dxz        
   148     -0.987807  3 O  dyz              127     -0.972076  3 O  py         
    93      0.957936  2 O  dyz               72      0.946996  2 O  py         
   184     -0.668725  4 O  px                75     -0.612418  2 O  py         
   126     -0.612149  3 O  px               130      0.607854  3 O  py         

 Vector   65  Occ=0.000000D+00  E= 7.991042D-01
              MO Center= -1.9D-01,  8.5D-02,  2.7D-01, r^2= 6.3D+00
   Bfn.  Coefficient  Atom+Function         Bfn.  Coefficient  Atom+Function  
  ----- ------------  ---------------      ----- ------------  ---------------
   119      4.195347  3 O  s                174     -1.708655  4 O  s          
   144     -1.616054  3 O  dxx              118     -1.578786  3 O  s          
   147     -1.573704  3 O  dyy               54     -1.520354  1 Cl fxyz       
    19     -1.370873  1 Cl px                64     -1.339160  2 O  s          
   128     -1.284631  3 O  pz                16     -1.275411  1 Cl px         

 Vector   66  Occ=0.000000D+00  E= 7.992232D-01
              MO Center=  7.2D-02,  1.4D-02,  3.0D-01, r^2= 6.0D+00
   Bfn.  Coefficient  Atom+Function         Bfn.  Coefficient  Atom+Function  
  ----- ------------  ---------------      ----- ------------  ---------------
    64      3.070047  2 O  s                174     -2.422063  4 O  s          
    89     -1.244806  2 O  dxx               73     -1.193194  2 O  pz         
    63     -1.139691  2 O  s                240     -1.127723  5 O  py         
    92     -1.098950  2 O  dyy              199      1.064002  4 O  dxx        
   183      1.049155  4 O  pz                91      1.031784  2 O  dxz        

 Vector   67  Occ=0.000000D+00  E= 8.009978D-01
              MO Center=  7.8D-02, -1.1D-01,  2.2D-01, r^2= 7.4D+00
   Bfn.  Coefficient  Atom+Function         Bfn.  Coefficient  Atom+Function  
  ----- ------------  ---------------      ----- ------------  ---------------
   229      6.075694  5 O  s                238      2.980825  5 O  pz         
   174     -2.795726  4 O  s                228     -2.806471  5 O  s          
   259     -2.792266  5 O  dzz               52      2.655992  1 Cl fxxz       
    64     -2.625462  2 O  s                 57      2.436920  1 Cl fyyz       
   241     -2.133350  5 O  pz                21      1.992055  1 Cl pz         

 Vector   68  Occ=0.000000D+00  E= 8.015544D-01
              MO Center= -4.4D-02,  1.8D-02, -5.4D-01, r^2= 6.1D+00
   Bfn.  Coefficient  Atom+Function         Bfn.  Coefficient  Atom+Function  
  ----- ------------  ---------------      ----- ------------  ---------------
   119      3.286112  3 O  s                 16     -1.787508  1 Cl px         
    19     -1.694038  1 Cl px                55     -1.580940  1 Cl fxzz       
    64     -1.580264  2 O  s                149     -1.580130  3 O  dzz        
   126     -1.510720  3 O  px               174     -1.467997  4 O  s          
   129      1.391883  3 O  px               118     -1.325106  3 O  s          

 Vector   69  Occ=0.000000D+00  E= 8.016608D-01
              MO Center=  1.2D-01, -7.3D-02, -5.4D-01, r^2= 6.5D+00
   Bfn.  Coefficient  Atom+Function         Bfn.  Coefficient  Atom+Function  
  ----- ------------  ---------------      ----- ------------  ---------------
   174     -3.620362  4 O  s                 64      3.313373  2 O  s          
    17      2.063360  1 Cl py                20      1.964539  1 Cl py         
    58      1.779335  1 Cl fyzz             182      1.777217  4 O  py         
   185     -1.641079  4 O  py               204      1.574415  4 O  dzz        
    89     -1.554986  2 O  dxx               75     -1.516010  2 O  py         

 Vector   70  Occ=0.000000D+00  E= 8.130637D-01
              MO Center=  2.4D-01, -2.5D-01, -2.9D-01, r^2= 7.5D+00
   Bfn.  Coefficient  Atom+Function         Bfn.  Coefficient  Atom+Function  
  ----- ------------  ---------------      ----- ------------  ---------------
   174      5.974754  4 O  s                 64     -5.087640  2 O  s          
    17      4.865319  1 Cl py                20      4.377824  1 Cl py         
    51     -2.968068  1 Cl fxxy              56     -2.972754  1 Cl fyyy       
    58     -2.690003  1 Cl fyzz             202     -2.442612  4 O  dyy        
   173     -2.404344  4 O  s                 63      2.059183  2 O  s          

 Vector   71  Occ=0.000000D+00  E= 8.140152D-01
              MO Center= -2.8D-01,  2.8D-01, -2.9D-01, r^2= 7.5D+00
   Bfn.  Coefficient  Atom+Function         Bfn.  Coefficient  Atom+Function  
  ----- ------------  ---------------      ----- ------------  ---------------
   119      6.576151  3 O  s                 16      4.790307  1 Cl px         
    19      4.403725  1 Cl px                64     -3.945397  2 O  s          
    50     -3.006480  1 Cl fxxx              53     -3.004360  1 Cl fxyy       
   118     -2.757172  3 O  s                 55     -2.704042  1 Cl fxzz       
   174     -2.174562  4 O  s                144     -2.141532  3 O  dxx        

 Vector   72  Occ=0.000000D+00  E= 8.209992D-01
              MO Center=  7.4D-03, -8.6D-03,  6.2D-01, r^2= 7.6D+00
   Bfn.  Coefficient  Atom+Function         Bfn.  Coefficient  Atom+Function  
  ----- ------------  ---------------      ----- ------------  ---------------
   229      7.305968  5 O  s                 18     -5.513595  1 Cl pz         
    21     -5.090083  1 Cl pz                59      3.454801  1 Cl fzzz       
   228     -3.466776  5 O  s                259     -3.176367  5 O  dzz        
    52      2.732731  1 Cl fxxz              57      2.704428  1 Cl fyyz       
     5      2.564049  1 Cl s                  6     -2.177556  1 Cl s          

 Vector   73  Occ=0.000000D+00  E= 8.335099D-01
              MO Center=  9.9D-03,  1.0D-03, -1.4D-02, r^2= 4.8D+00
   Bfn.  Coefficient  Atom+Function         Bfn.  Coefficient  Atom+Function  
  ----- ------------  ---------------      ----- ------------  ---------------
    32      0.718468  1 Cl dyz              148     -0.713673  3 O  dyz        
   237      0.515367  5 O  py                93     -0.502725  2 O  dyz        
    90     -0.491658  2 O  dxy              183     -0.484500  4 O  pz         
   199     -0.451705  4 O  dxx              127     -0.448658  3 O  py         
   254     -0.436756  5 O  dxx              257      0.433616  5 O  dyy        

 Vector   74  Occ=0.000000D+00  E= 8.338275D-01
              MO Center=  1.7D-02, -2.8D-02,  2.0D-02, r^2= 4.8D+00
   Bfn.  Coefficient  Atom+Function         Bfn.  Coefficient  Atom+Function  
  ----- ------------  ---------------      ----- ------------  ---------------
     6      1.026866  1 Cl s                255     -0.905047  5 O  dxy        
   201     -0.793184  4 O  dxz               30      0.737043  1 Cl dxz        
     5     -0.728575  1 Cl s                181     -0.537568  4 O  px         
    93      0.526577  2 O  dyz              236      0.527488  5 O  px         
    29      0.500762  1 Cl dxy              128     -0.468025  3 O  pz         

 Vector   75  Occ=0.000000D+00  E= 8.426884D-01
              MO Center=  3.8D-02, -3.8D-02, -1.7D-01, r^2= 9.1D+00
   Bfn.  Coefficient  Atom+Function         Bfn.  Coefficient  Atom+Function  
  ----- ------------  ---------------      ----- ------------  ---------------
     6     30.414966  1 Cl s                  5    -19.978201  1 Cl s          
   229    -10.540641  5 O  s                 64    -10.202731  2 O  s          
   174    -10.227643  4 O  s                119    -10.103674  3 O  s          
   118      3.239014  3 O  s                 63      3.171350  2 O  s          
   173      3.145841  4 O  s                228      3.106148  5 O  s          

 Vector   76  Occ=0.000000D+00  E= 9.117028D-01
              MO Center=  5.6D-04,  8.6D-03, -1.3D-02, r^2= 7.4D+00
   Bfn.  Coefficient  Atom+Function         Bfn.  Coefficient  Atom+Function  
  ----- ------------  ---------------      ----- ------------  ---------------
   118      8.412026  3 O  s                 16      6.896411  1 Cl px         
   126      6.201629  3 O  px               119      5.958430  3 O  s          
    17     -5.867817  1 Cl py               173     -5.341814  4 O  s          
    35      4.965246  1 Cl dxy              182     -4.540812  4 O  py         
   127     -3.709241  3 O  py               174     -3.647789  4 O  s          

 Vector   77  Occ=0.000000D+00  E= 9.117295D-01
              MO Center= -1.5D-02,  5.7D-03, -8.5D-03, r^2= 7.4D+00
   Bfn.  Coefficient  Atom+Function         Bfn.  Coefficient  Atom+Function  
  ----- ------------  ---------------      ----- ------------  ---------------
    63      7.867068  2 O  s                 17     -6.766533  1 Cl py         
   173     -6.413382  4 O  s                 16     -5.856852  1 Cl px         
    71     -5.837323  2 O  px                64      5.533848  2 O  s          
   182     -5.468715  4 O  py               174     -4.525406  4 O  s          
    35     -3.896538  1 Cl dxy               38      3.481051  1 Cl dyz        

 Vector   78  Occ=0.000000D+00  E= 9.128339D-01
              MO Center= -1.3D-03,  1.1D-03,  5.6D-04, r^2= 7.3D+00
   Bfn.  Coefficient  Atom+Function         Bfn.  Coefficient  Atom+Function  
  ----- ------------  ---------------      ----- ------------  ---------------
   228    -10.391715  5 O  s                 18      9.729839  1 Cl pz         
   238      8.810745  5 O  pz               229     -6.139413  5 O  s          
    39      4.466731  1 Cl dzz              259     -3.316593  5 O  dzz        
    52      3.259513  1 Cl fxxz              57      3.248654  1 Cl fyyz       
    63      3.043347  2 O  s                118      2.977080  3 O  s          

 Vector   79  Occ=0.000000D+00  E= 9.643943D-01
              MO Center=  1.0D-02, -9.5D-03,  1.7D-02, r^2= 6.6D+00
   Bfn.  Coefficient  Atom+Function         Bfn.  Coefficient  Atom+Function  
  ----- ------------  ---------------      ----- ------------  ---------------
     6     29.079854  1 Cl s                  5    -13.696312  1 Cl s          
    64     -8.728654  2 O  s                119     -8.703406  3 O  s          
   174     -8.740112  4 O  s                229     -8.574954  5 O  s          
    39     -4.420157  1 Cl dzz               37     -4.209871  1 Cl dyy        
    34     -4.136629  1 Cl dxx              228      4.150824  5 O  s          

 Vector   80  Occ=0.000000D+00  E= 9.812545D-01
              MO Center=  4.3D-02, -5.8D-02, -1.7D-01, r^2= 4.2D+00
   Bfn.  Coefficient  Atom+Function         Bfn.  Coefficient  Atom+Function  
  ----- ------------  ---------------      ----- ------------  ---------------
    17      7.464911  1 Cl py               173      3.529409  4 O  s          
   182      3.129928  4 O  py                71      3.055884  2 O  px         
    63     -2.847071  2 O  s                 16      2.783390  1 Cl px         
   202      2.066795  4 O  dyy              127     -2.007772  3 O  py         
    20     -1.964689  1 Cl py               126     -1.881523  3 O  px         

 Vector   81  Occ=0.000000D+00  E= 9.823954D-01
              MO Center= -1.4D-02,  2.4D-02, -2.0D-01, r^2= 4.2D+00
   Bfn.  Coefficient  Atom+Function         Bfn.  Coefficient  Atom+Function  
  ----- ------------  ---------------      ----- ------------  ---------------
    16      7.363187  1 Cl px               118      3.578114  3 O  s          
    72      3.066049  2 O  py               181     -2.835267  4 O  px         
    54      2.749652  1 Cl fxyz              17     -2.731243  1 Cl py         
   126      2.557393  3 O  px                36     -2.506866  1 Cl dxz        
    63     -2.373059  2 O  s                127     -2.144092  3 O  py         

 Vector   82  Occ=0.000000D+00  E= 9.897504D-01
              MO Center=  4.7D-02, -5.0D-02,  9.2D-02, r^2= 6.2D+00
   Bfn.  Coefficient  Atom+Function         Bfn.  Coefficient  Atom+Function  
  ----- ------------  ---------------      ----- ------------  ---------------
    38      8.255290  1 Cl dyz              237     -3.896735  5 O  py         
    36      3.481893  1 Cl dxz              183      3.455974  4 O  pz         
    37     -3.245716  1 Cl dyy               34      3.224304  1 Cl dxx        
    73     -2.927356  2 O  pz               127      2.661946  3 O  py         
    35      2.443265  1 Cl dxy               17      1.811785  1 Cl py         

 Vector   83  Occ=0.000000D+00  E= 9.899684D-01
              MO Center= -6.1D-02,  6.6D-02,  1.4D-01, r^2= 6.1D+00
   Bfn.  Coefficient  Atom+Function         Bfn.  Coefficient  Atom+Function  
  ----- ------------  ---------------      ----- ------------  ---------------
    36      8.220573  1 Cl dxz               35      6.150171  1 Cl dxy        
   236     -4.011359  5 O  px               128      3.831586  3 O  pz         
    38     -3.473002  1 Cl dyz              181      2.643940  4 O  px         
    16      2.539451  1 Cl px                73     -2.419229  2 O  pz         
    72     -2.047737  2 O  py               237      1.689633  5 O  py         

 Vector   84  Occ=0.000000D+00  E= 1.005828D+00
              MO Center= -5.0D-03,  5.6D-03,  5.1D-02, r^2= 3.9D+00
   Bfn.  Coefficient  Atom+Function         Bfn.  Coefficient  Atom+Function  
  ----- ------------  ---------------      ----- ------------  ---------------
    18     10.123351  1 Cl pz               228     -4.899015  5 O  s          
   238      4.610442  5 O  pz               259     -2.937374  5 O  dzz        
    12      2.024010  1 Cl pz               182      2.014533  4 O  py         
    21     -1.939190  1 Cl pz                71     -1.837629  2 O  px         
   126      1.795665  3 O  px               128     -1.801753  3 O  pz         

 Vector   85  Occ=0.000000D+00  E= 1.118528D+00
              MO Center=  4.4D-04,  1.7D-05,  4.0D-02, r^2= 6.5D+00
   Bfn.  Coefficient  Atom+Function         Bfn.  Coefficient  Atom+Function  
  ----- ------------  ---------------      ----- ------------  ---------------
     5     38.683115  1 Cl s                228    -12.580841  5 O  s          
   238     11.278904  5 O  pz               118     -8.159828  3 O  s          
    63     -7.943283  2 O  s                173     -7.817312  4 O  s          
   182     -7.706367  4 O  py               126     -6.857538  3 O  px         
    71      6.795950  2 O  px                39      5.267843  1 Cl dzz        

 Vector   86  Occ=0.000000D+00  E= 1.161579D+00
              MO Center= -1.1D-02,  9.6D-03, -7.5D-02, r^2= 5.9D+00
   Bfn.  Coefficient  Atom+Function         Bfn.  Coefficient  Atom+Function  
  ----- ------------  ---------------      ----- ------------  ---------------
    18     33.408382  1 Cl pz               228    -19.446595  5 O  s          
   238     16.277648  5 O  pz               118      8.460161  3 O  s          
   126      7.550566  3 O  px               182      6.679915  4 O  py         
   259     -6.617435  5 O  dzz               71     -6.564287  2 O  px         
    63      6.504677  2 O  s                229     -6.490527  5 O  s          

 Vector   87  Occ=0.000000D+00  E= 1.164010D+00
              MO Center= -4.6D-02,  3.9D-02,  6.1D-02, r^2= 6.0D+00
   Bfn.  Coefficient  Atom+Function         Bfn.  Coefficient  Atom+Function  
  ----- ------------  ---------------      ----- ------------  ---------------
    17     28.072421  1 Cl py               173     14.897845  4 O  s          
    16     13.579701  1 Cl px                63    -13.159044  2 O  s          
   182     12.151854  4 O  py                71     10.798684  2 O  px         
   183      5.955889  4 O  pz                73     -5.516414  2 O  pz         
   237     -5.489611  5 O  py               174      5.221705  4 O  s          

 Vector   88  Occ=0.000000D+00  E= 1.164529D+00
              MO Center=  4.5D-02, -3.7D-02,  5.6D-02, r^2= 6.0D+00
   Bfn.  Coefficient  Atom+Function         Bfn.  Coefficient  Atom+Function  
  ----- ------------  ---------------      ----- ------------  ---------------
    16     28.132888  1 Cl px               118     15.861304  3 O  s          
    17    -13.406955  1 Cl py               126     10.695272  3 O  px         
    63     -9.842916  2 O  s                 72      8.144102  2 O  py         
   173     -7.239191  4 O  s                127     -7.004787  3 O  py         
    35      6.613687  1 Cl dxy              128      6.488926  3 O  pz         

 Vector   89  Occ=0.000000D+00  E= 1.173837D+00
              MO Center=  1.1D-02, -1.4D-02, -6.0D-01, r^2= 4.9D+00
   Bfn.  Coefficient  Atom+Function         Bfn.  Coefficient  Atom+Function  
  ----- ------------  ---------------      ----- ------------  ---------------
   200      2.994887  4 O  dxy              181      2.933279  4 O  px         
    72      2.669978  2 O  py               127     -2.333388  3 O  py         
    90     -1.526945  2 O  dxy               92     -1.466484  2 O  dyy        
    53     -1.404520  1 Cl fxyy             145     -1.364910  3 O  dxy        
   126     -1.314352  3 O  px               147      1.302471  3 O  dyy        

 Vector   90  Occ=0.000000D+00  E= 1.177536D+00
              MO Center= -3.1D-01,  2.8D-01,  2.6D-01, r^2= 5.0D+00
   Bfn.  Coefficient  Atom+Function         Bfn.  Coefficient  Atom+Function  
  ----- ------------  ---------------      ----- ------------  ---------------
   128      3.289666  3 O  pz               256     -2.641365  5 O  dxz        
   236      2.507036  5 O  px                73     -2.183702  2 O  pz         
    16      2.124755  1 Cl px               146      1.837111  3 O  dxz        
   149      1.726628  3 O  dzz              183     -1.630605  4 O  pz         
   258      1.259389  5 O  dyz               55     -1.238669  1 Cl fxzz       

 Vector   91  Occ=0.000000D+00  E= 1.178708D+00
              MO Center=  3.1D-01, -2.8D-01,  2.5D-01, r^2= 5.0D+00
   Bfn.  Coefficient  Atom+Function         Bfn.  Coefficient  Atom+Function  
  ----- ------------  ---------------      ----- ------------  ---------------
[...]
   Bfn.  Coefficient  Atom+Function         Bfn.  Coefficient  Atom+Function  
  ----- ------------  ---------------      ----- ------------  ---------------
   118     11.681704  3 O  s                 16     11.611535  1 Cl px         
   126      9.891468  3 O  px                18      8.343322  1 Cl pz         
   238      8.253993  5 O  pz               228     -7.848882  5 O  s          
   116      7.433414  3 O  s                123      6.580652  3 O  px         
   127     -6.306837  3 O  py                63     -5.758868  2 O  s          

 Vector  274  Occ=0.000000D+00  E= 1.667954D+01
              MO Center=  7.8D-01,  4.0D-01,  2.6D-01, r^2= 2.4D+00
   Bfn.  Coefficient  Atom+Function         Bfn.  Coefficient  Atom+Function  
  ----- ------------  ---------------      ----- ------------  ---------------
    63     11.843443  2 O  s                 71    -10.360375  2 O  px         
    18     10.264489  1 Cl pz               238      9.956752  5 O  pz         
   228     -9.484103  5 O  s                 16     -7.918258  1 Cl px         
    61      7.533213  2 O  s                 68     -6.715709  2 O  px         
   235      6.564395  5 O  pz                17     -6.113857  1 Cl py         

 Vector  275  Occ=0.000000D+00  E= 1.714718D+01
              MO Center=  1.6D-04, -3.1D-03, -1.5D-02, r^2= 2.6D+00
   Bfn.  Coefficient  Atom+Function         Bfn.  Coefficient  Atom+Function  
  ----- ------------  ---------------      ----- ------------  ---------------
     5     19.808822  1 Cl s                  6    -11.581153  1 Cl s          
    63      4.039895  2 O  s                118      4.039753  3 O  s          
   173      4.033339  4 O  s                228      4.040358  5 O  s          
    64      4.005084  2 O  s                119      4.003973  3 O  s          
   174      4.002686  4 O  s                229      4.004454  5 O  s          

 Vector  276  Occ=0.000000D+00  E= 1.730686D+01
              MO Center= -3.8D-01, -5.4D-01, -4.6D-01, r^2= 2.2D+00
   Bfn.  Coefficient  Atom+Function         Bfn.  Coefficient  Atom+Function  
  ----- ------------  ---------------      ----- ------------  ---------------
    17     17.153725  1 Cl py               182     14.157193  4 O  py         
   179     10.457383  4 O  py               126     -9.726468  3 O  px         
   202      7.199376  4 O  dyy              123     -7.104526  3 O  px         
   183      5.561260  4 O  pz                16     -5.525012  1 Cl px         
    38     -5.441780  1 Cl dyz              206     -5.410334  4 O  fxxy       

 Vector  277  Occ=0.000000D+00  E= 1.730714D+01
              MO Center= -2.7D-01,  1.9D-02,  6.9D-01, r^2= 2.2D+00
   Bfn.  Coefficient  Atom+Function         Bfn.  Coefficient  Atom+Function  
  ----- ------------  ---------------      ----- ------------  ---------------
    18     16.607488  1 Cl pz               238     15.440938  5 O  pz         
   235     11.377568  5 O  pz               126      8.008411  3 O  px         
   259     -7.634675  5 O  dzz               16      7.014468  1 Cl px         
   182      6.353944  4 O  py               123      5.881386  3 O  px         
   262     -5.899103  5 O  fxxz             267     -5.895945  5 O  fyyz       

 Vector  278  Occ=0.000000D+00  E= 1.730766D+01
              MO Center=  6.5D-01,  5.2D-01, -2.7D-01, r^2= 2.1D+00
   Bfn.  Coefficient  Atom+Function         Bfn.  Coefficient  Atom+Function  
  ----- ------------  ---------------      ----- ------------  ---------------
    16     15.707303  1 Cl px                71     13.419412  2 O  px         
    68      9.902559  2 O  px                72      7.862645  2 O  py         
    89     -7.203126  2 O  dxx               18     -7.002032  1 Cl pz         
    35      6.934734  1 Cl dxy              238     -6.366465  5 O  pz         
    92     -5.970424  2 O  dyy               69      5.755063  2 O  py         

 Vector  279  Occ=0.000000D+00  E= 3.274804D+01
              MO Center=  1.7D-03, -2.0D-03, -1.4D-02, r^2= 3.3D+00
   Bfn.  Coefficient  Atom+Function         Bfn.  Coefficient  Atom+Function  
  ----- ------------  ---------------      ----- ------------  ---------------
     5    115.030407  1 Cl s                  3    -57.048574  1 Cl s          
     2    -40.671590  1 Cl s                 63    -22.403586  2 O  s          
   118    -22.408159  3 O  s                173    -22.408557  4 O  s          
   228    -22.405491  5 O  s                238     12.656664  5 O  pz         
   182    -11.887935  4 O  py                71     10.368882  2 O  px         


 center of mass
 --------------
 x =   0.00362753 y =  -0.00379025 z =  -0.02687265

 moments of inertia (a.u.)
 ------------------
         340.266356869446          -0.014057125024           0.011573797411
          -0.014057125024         340.298579988075          -0.007164647981
           0.011573797411          -0.007164647981         340.276637050137

     Multipole analysis of the density
     ---------------------------------

     L   x y z        total         alpha         beta         nuclear
     -   - - -        -----         -----         ----         -------
     0   0 0 0     -1.000000    -25.000000    -25.000000     49.000000

     1   1 0 0     -0.001695     -0.089669     -0.089669      0.177642
     1   0 1 0      0.006611      0.096179      0.096179     -0.185748
     1   0 0 1      0.027962      0.672356      0.672356     -1.316750

     2   2 0 0    -31.480103    -58.292518    -58.292518     85.104933
     2   1 1 0      0.001709     -0.002324     -0.002324      0.006357
     2   1 0 1     -0.001203      0.004680      0.004680     -0.010562
     2   0 2 0    -31.485021    -58.286949    -58.286949     85.088876
     2   0 1 1     -0.002415     -0.005495     -0.005495      0.008575
     2   0 0 2    -31.481028    -58.307780    -58.307780     85.134531

 Line search: 
     step= 1.00 grad=-1.5D-06 hess= 1.2D-06 energy=   -760.575980 mode=accept  
 new step= 1.00                   predicted energy=   -760.575980

          --------
          Step   5
          --------


                         Geometry "geometry" -> "geometry"
                         ---------------------------------

 Output coordinates in angstroms (scale by  1.889725989 to convert to a.u.)

  No.       Tag          Charge          X              Y              Z
 ---- ---------------- ---------- -------------- -------------- --------------
    1 Cl                  17.0000     0.00203513    -0.00197838    -0.01423133
    2 O                    8.0000     1.22609484     0.69198904    -0.51809403
    3 O                    8.0000    -1.21444318     0.72345215    -0.49186727
    4 O                    8.0000    -0.02183555    -1.40565104    -0.52719717
    5 O                    8.0000     0.01760977    -0.01787278     1.48030080

      Atomic Mass 
      ----------- 

      Cl                34.968850
      O                 15.994910


 Effective nuclear repulsion energy (a.u.)     275.8534121474

            Nuclear Dipole moment (a.u.) 
            ----------------------------
        X                 Y               Z
 ---------------- ---------------- ----------------
     0.1776420819    -0.1857476453    -1.3167497385


                                 NWChem DFT Module
                                 -----------------




 Summary of "ao basis" -> "ao basis" (cartesian)
 ------------------------------------------------------------------------------
       Tag                 Description            Shells   Functions and Types
 ---------------- ------------------------------  ------  ---------------------
 Cl                       aug-cc-pVTZ               16       59   6s5p3d2f
 O                        aug-cc-pVTZ               14       55   5s4p3d2f



  The DFT is already converged 

         Total DFT energy =   -760.575979846194


            General Information
            -------------------
          SCF calculation type: DFT
          Wavefunction type:  closed shell.
          No. of atoms     :     5
          No. of electrons :    50
           Alpha electrons :    25
            Beta electrons :    25
          Charge           :    -1
          Spin multiplicity:     1
          Use of symmetry is: off; symmetry adaption is: off
          Maximum number of iterations: 200
          AO basis - number of functions:   279
                     number of shells:    72
          Convergence on energy requested:  1.00D-06
          Convergence on density requested:  1.00D-05
          Convergence on gradient requested:  5.00D-04

              XC Information
              --------------
          PerdewBurkeErnzerhof Exchange Functional  1.000          
            Perdew 1991 LDA Correlation Functional  1.000 local    
           PerdewBurkeErnz. Correlation Functional  1.000 non-local

             Grid Information
             ----------------
          Grid used for XC integration:  medium    
          Radial quadrature: Mura-Knowles        
          Angular quadrature: Lebedev. 
          Tag              B.-S. Rad. Rad. Pts. Rad. Cut. Ang. Pts.
          ---              ---------- --------- --------- ---------
          Cl                  1.00       88          10.0       590
          O                   0.60       49          11.0       434
          Grid pruning is: on 
          Number of quadrature shells:   284
          Spatial weights used:  Erf1

          Convergence Information
          -----------------------
          Convergence aids based upon iterative change in 
          total energy or number of iterations. 
          Levelshifting, if invoked, occurs when the 
          HOMO/LUMO gap drops below (HL_TOL):  1.00D-02
          DIIS, if invoked, will attempt to extrapolate 
          using up to (NFOCK): 10 stored Fock matrices.

                    Damping(40%)  Levelshifting(0.0)       DIIS
                  --------------- ------------------- ---------------
          dE  on:    start            ASAP                start   
          dE off:  200 iters        200 iters           200 iters 


      Screening Tolerance Information
      -------------------------------
          Density screening/tol_rho:  1.00D-10
          AO Gaussian exp screening on grid/accAOfunc:  14
          CD Gaussian exp screening on grid/accCDfunc:  20
          XC Gaussian exp screening on grid/accXCfunc:  20
          Schwarz screening/accCoul:  1.00D-08



                            NWChem DFT Gradient Module
                            --------------------------



  charge          =  -1.00
  wavefunction    = closed shell



                         DFT ENERGY GRADIENTS

    atom               coordinates                        gradient
                 x          y          z           x          y          z
   1 Cl      0.003846  -0.003739  -0.026893    0.000004  -0.000348  -0.000206
   2 O       2.316983   1.307670  -0.979056    0.000041   0.000045  -0.000009
   3 O      -2.294965   1.367126  -0.929494    0.000013  -0.000023   0.000041
   4 O      -0.041263  -2.656295  -0.996258   -0.000026   0.000303   0.000111
   5 O       0.033278  -0.033775   2.797363   -0.000033   0.000022   0.000062

                 ----------------------------------------
                 |  Time  |  1-e(secs)   |  2-e(secs)   |
                 ----------------------------------------
                 |  CPU   |       0.01   |      11.10   |
                 ----------------------------------------
                 |  WALL  |       0.01   |      11.15   |
                 ----------------------------------------

  Step       Energy      Delta E   Gmax     Grms     Xrms     Xmax   Walltime
  ---- ---------------- -------- -------- -------- -------- -------- --------
@    5    -760.57597985 -3.2D-07  0.00035  0.00014  0.00062  0.00127    248.7
                                     ok       ok       ok       ok  


      ----------------------
      Optimization converged
      ----------------------


  Step       Energy      Delta E   Gmax     Grms     Xrms     Xmax   Walltime
  ---- ---------------- -------- -------- -------- -------- -------- --------
@    5    -760.57597985 -3.2D-07  0.00035  0.00014  0.00062  0.00127    248.7
                                     ok       ok       ok       ok  



                         Geometry "geometry" -> "geometry"
                         ---------------------------------

 Output coordinates in angstroms (scale by  1.889725989 to convert to a.u.)

  No.       Tag          Charge          X              Y              Z
 ---- ---------------- ---------- -------------- -------------- --------------
    1 Cl                  17.0000     0.00203513    -0.00197838    -0.01423133
    2 O                    8.0000     1.22609484     0.69198904    -0.51809403
    3 O                    8.0000    -1.21444318     0.72345215    -0.49186727
    4 O                    8.0000    -0.02183555    -1.40565104    -0.52719717
    5 O                    8.0000     0.01760977    -0.01787278     1.48030080

      Atomic Mass 
      ----------- 

      Cl                34.968850
      O                 15.994910


 Effective nuclear repulsion energy (a.u.)     275.8534121474

            Nuclear Dipole moment (a.u.) 
            ----------------------------
        X                 Y               Z
 ---------------- ---------------- ----------------
     0.1776420819    -0.1857476453    -1.3167497385

 ==============================================================================
                                internuclear distances
 ------------------------------------------------------------------------------
       center one      |      center two      | atomic units |  angstroms
 ------------------------------------------------------------------------------
    2 O                |   1 Cl               |     2.82436  |     1.49459
    3 O                |   1 Cl               |     2.82462  |     1.49473
    4 O                |   1 Cl               |     2.82449  |     1.49466
    5 O                |   1 Cl               |     2.82457  |     1.49470
 ------------------------------------------------------------------------------
                         number of included internuclear distances:          4
 ==============================================================================



 ==============================================================================
                                 internuclear angles
 ------------------------------------------------------------------------------
        center 1       |       center 2       |       center 3       |  degrees
 ------------------------------------------------------------------------------
    2 O                |   1 Cl               |   3 O                |   109.48
    2 O                |   1 Cl               |   4 O                |   109.48
    2 O                |   1 Cl               |   5 O                |   109.48
    3 O                |   1 Cl               |   4 O                |   109.46
    3 O                |   1 Cl               |   5 O                |   109.46
    4 O                |   1 Cl               |   5 O                |   109.47
 ------------------------------------------------------------------------------
                            number of included internuclear angles:          6
 ==============================================================================




 Task  times  cpu:      243.3s     wall:      248.5s


                                NWChem Input Module
                                -------------------


 Summary of allocated global arrays
-----------------------------------
  No active global arrays


MA_summarize_allocated_blocks: starting scan ...
MA_summarize_allocated_blocks: scan completed: 0 heap blocks, 0 stack blocks
MA usage statistics:

	allocation statistics:
					      heap	     stack
					      ----	     -----
	current number of blocks	         0	         0
	maximum number of blocks	        24	        53
	current total bytes		         0	         0
	maximum total bytes		 269966336	  44712888
	maximum total K-bytes		    269967	     44713
	maximum total M-bytes		       270	        45


                                     CITATION
                                     --------
                Please cite the following reference when publishing
                           results obtained with NWChem:

          E. Apra, E. J. Bylaska, W. A. de Jong, N. Govind, K. Kowalski,
       T. P. Straatsma, M. Valiev, H. J. J. van Dam, Y. Alexeev, J. Anchell,
       V. Anisimov, F. W. Aquino, R. Atta-Fynn, J. Autschbach, N. P. Bauman,
     J. C. Becca, D. E. Bernholdt, K. Bhaskaran-Nair, S. Bogatko, P. Borowski,
         J. Boschen, J. Brabec, A. Bruner, E. Cauet, Y. Chen, G. N. Chuev,
      C. J. Cramer, J. Daily, M. J. O. Deegan, T. H. Dunning Jr., M. Dupuis,
   K. G. Dyall, G. I. Fann, S. A. Fischer, A. Fonari, H. Fruchtl, L. Gagliardi,
      J. Garza, N. Gawande, S. Ghosh, K. Glaesemann, A. W. Gotz, J. Hammond,
       V. Helms, E. D. Hermes, K. Hirao, S. Hirata, M. Jacquelin, L. Jensen,
   B. G. Johnson, H. Jonsson, R. A. Kendall, M. Klemm, R. Kobayashi, V. Konkov,
      S. Krishnamoorthy, M. Krishnan, Z. Lin, R. D. Lins, R. J. Littlefield,
      A. J. Logsdail, K. Lopata, W. Ma, A. V. Marenich, J. Martin del Campo,
   D. Mejia-Rodriguez, J. E. Moore, J. M. Mullin, T. Nakajima, D. R. Nascimento,
    J. A. Nichols, P. J. Nichols, J. Nieplocha, A. Otero-de-la-Roza, B. Palmer,
    A. Panyala, T. Pirojsirikul, B. Peng, R. Peverati, J. Pittner, L. Pollack,
   R. M. Richard, P. Sadayappan, G. C. Schatz, W. A. Shelton, D. W. Silverstein,
   D. M. A. Smith, T. A. Soares, D. Song, M. Swart, H. L. Taylor, G. S. Thomas,
            V. Tipparaju, D. G. Truhlar, K. Tsemekhman, T. Van Voorhis,
      A. Vazquez-Mayagoitia, P. Verma, O. Villa, A. Vishnu, K. D. Vogiatzis,
        D. Wang, J. H. Weare, M. J. Williamson, T. L. Windus, K. Wolinski,
        A. T. Wong, Q. Wu, C. Yang, Q. Yu, M. Zacharias, Z. Zhang, Y. Zhao,
                                and R. J. Harrison
                        "NWChem: Past, present, and future
                         J. Chem. Phys. 152, 184102 (2020)
                               doi:10.1063/5.0004997

                                      AUTHORS
                                      -------
  E. Apra, E. J. Bylaska, N. Govind, K. Kowalski, M. Valiev, D. Mejia-Rodriguez,
       A. Kunitsa, N. P. Bauman, A. Panyala, W. A. de Jong, T. P. Straatsma,
   H. J. J. van Dam, D. Wang, T. L. Windus, J. Hammond, J. Autschbach, A. Woods,
    K. Bhaskaran-Nair, J. Brabec, K. Lopata, S. A. Fischer, S. Krishnamoorthy,
     M. Jacquelin, W. Ma, M. Klemm, O. Villa, Y. Chen, V. Anisimov, F. Aquino,
     S. Hirata, M. T. Hackler, E. Hermes, L. Jensen, J. E. Moore, J. C. Becca,
      V. Konjkov, T. Risthaus, M. Malagoli, A. Marenich, A. Otero-de-la-Roza,
        J. Mullin, P. Nichols, R. Peverati, J. Pittner, Y. Zhao, P.-D. Fan,
        A. Fonari, M. J. Williamson, R. J. Harrison, J. R. Rehr, M. Dupuis,
     D. Silverstein, D. M. A. Smith, J. Nieplocha, V. Tipparaju, M. Krishnan,
     B. E. Van Kuiken, A. Vazquez-Mayagoitia, M. Swart, Q. Wu, T. Van Voorhis,
     A. A. Auer, M. Nooijen, L. D. Crosby, E. Brown, G. Cisneros, G. I. Fann,
   H. Fruchtl, J. Garza, K. Hirao, R. A. Kendall, J. A. Nichols, K. Tsemekhman,
    K. Wolinski, J. Anchell, D. E. Bernholdt, P. Borowski, T. Clark, D. Clerc,
   H. Dachsel, M. J. O. Deegan, K. Dyall, D. Elwood, E. Glendening, M. Gutowski,
   A. C. Hess, J. Jaffe, B. G. Johnson, J. Ju, R. Kobayashi, R. Kutteh, Z. Lin,
   R. Littlefield, X. Long, B. Meng, T. Nakajima, S. Niu, L. Pollack, M. Rosing,
   K. Glaesemann, G. Sandrone, M. Stave, H. Taylor, G. Thomas, J. H. van Lenthe,
                               A. T. Wong, Z. Zhang.

 Total times  cpu:      243.4s     wall:      248.7s
