 argument  1 = 0e/mol.nwi
                                         
                                         


             Northwest Computational Chemistry Package (NWChem) 7.2.2
             --------------------------------------------------------


                    Environmental Molecular Sciences Laboratory
                       Pacific Northwest National Laboratory
                                Richland, WA 99352

                              Copyright (c) 1994-2022
                       Pacific Northwest National Laboratory
                            Battelle Memorial Institute

             NWChem is an open-source computational chemistry package
                        distributed under the terms of the
                      Educational Community License (ECL) 2.0
             A copy of the license is included with this distribution
                              in the LICENSE.TXT file

                                  ACKNOWLEDGMENT
                                  --------------

            This software and its documentation were developed at the
            EMSL at Pacific Northwest National Laboratory, a multiprogram
            national laboratory, operated for the U.S. Department of Energy
            by Battelle under Contract Number DE-AC05-76RL01830. Support
            for this work was provided by the Department of Energy Office
            of Biological and Environmental Research, Office of Basic
            Energy Sciences, and the Office of Advanced Scientific Computing.


           Job information
           ---------------

    hostname        = r262.ib.bridges2.psc.edu
    program         = nwchem
    date            = Tue Oct  1 15:18:56 2024

    compiled        = Mon_Mar_18_17:03:37_2024
    source          = /ocean/projects/pscstaff/mmadrid/nwchem-7.2.2
    nwchem branch   = 7.2.2
    nwchem revision = 74936fb9
    ga revision     = 5.8.0
    use scalapack   = F
    input           = 0e/mol.nwi
    prefix          = dft.
    data base       = .//dft.db
    status          = startup
    nproc           =       15
    time left       =     -1s



           Memory information
           ------------------

    heap     =   67108860 doubles =    512.0 Mbytes
    stack    =   67108865 doubles =    512.0 Mbytes
    global   =  134217728 doubles =   1024.0 Mbytes (distinct from heap & stack)
    total    =  268435453 doubles =   2048.0 Mbytes
    verify   = yes
    hardfail = no 


           Directory information
           ---------------------

  0 permanent = ./
  0 scratch   = /jet/home/hmt47/nwchem_scratch/




                                NWChem Input Module
                                -------------------


  library name resolved from: environment
  library file name is: </opt/packages/nwchem/nwchem7.2.2/share/nwchem/libraries/>
  


 Summary of "ao basis" -> "" (cartesian)
 ------------------------------------------------------------------------------
       Tag                 Description            Shells   Functions and Types
 ---------------- ------------------------------  ------  ---------------------
 *                        aug-cc-pVTZ                 on all atoms 


  pbe96 is a nonlocal functional; adding pw91lda local functional. 

 Scaling coordinates for geometry "geometry" by  1.889725989
 (inverse scale =  0.529177249)



                             Geometry "geometry" -> ""
                             -------------------------

 Output coordinates in angstroms (scale by  1.889725989 to convert to a.u.)

  No.       Tag          Charge          X              Y              Z
 ---- ---------------- ---------- -------------- -------------- --------------
    1 C                    6.0000    -0.01610200    -0.02647925    -0.04590267
    2 C                    6.0000     0.00647333     0.01087969     1.50933425
    3 O                    8.0000    -0.19158298     1.13651732    -0.51459760
    4 O                    8.0000     0.13251070    -1.12737476    -0.62489748
    5 H                    1.0000     0.82350698     0.67054874     1.84288092
    6 H                    1.0000    -0.95101196     0.41462010     1.87607430
    7 F                    9.0000     0.19945593    -1.24373183     2.16135829

      Atomic Mass 
      ----------- 

      C                 12.000000
      O                 15.994910
      H                  1.007825
      F                 18.998400


 Effective nuclear repulsion energy (a.u.)     163.9337574154

            Nuclear Dipole moment (a.u.) 
            ----------------------------
        X                 Y               Z
 ---------------- ---------------- ----------------
     2.1490873467   -19.1407973966    43.1534211139


            XYZ format geometry
            -------------------
     7
 geometry
 C                    -0.01610200    -0.02647925    -0.04590267
 C                     0.00647333     0.01087969     1.50933425
 O                    -0.19158298     1.13651732    -0.51459760
 O                     0.13251070    -1.12737476    -0.62489748
 H                     0.82350698     0.67054874     1.84288092
 H                    -0.95101196     0.41462010     1.87607430
 F                     0.19945593    -1.24373183     2.16135829

 ==============================================================================
                                internuclear distances
 ------------------------------------------------------------------------------
       center one      |      center two      | atomic units |  angstroms
 ------------------------------------------------------------------------------
    2 C                |   1 C                |     2.94013  |     1.55585
    3 O                |   1 C                |     2.39260  |     1.26611
    4 O                |   1 C                |     2.36729  |     1.25271
    5 H                |   2 C                |     2.08210  |     1.10180
    6 H                |   2 C                |     2.08237  |     1.10194
    7 F                |   2 C                |     2.69670  |     1.42703
 ------------------------------------------------------------------------------
                         number of included internuclear distances:          6
 ==============================================================================



 ==============================================================================
                                 internuclear angles
 ------------------------------------------------------------------------------
        center 1       |       center 2       |       center 3       |  degrees
 ------------------------------------------------------------------------------
    2 C                |   1 C                |   3 O                |   110.49
    2 C                |   1 C                |   4 O                |   118.78
    3 O                |   1 C                |   4 O                |   130.74
    1 C                |   2 C                |   5 H                |   109.13
    1 C                |   2 C                |   6 H                |   109.20
    1 C                |   2 C                |   7 F                |   115.95
    5 H                |   2 C                |   6 H                |   108.92
    5 H                |   2 C                |   7 F                |   106.72
    6 H                |   2 C                |   7 F                |   106.71
 ------------------------------------------------------------------------------
                            number of included internuclear angles:          9
 ==============================================================================




                                 NWChem DFT Module
                                 -----------------


                      Basis "ao basis" -> "ao basis" (cartesian)
                      -----
  C (Carbon)
  ----------
            Exponent  Coefficients 
       -------------- ---------------------------------------------------------
  1 S  8.23600000E+03  0.000531
  1 S  1.23500000E+03  0.004108
  1 S  2.80800000E+02  0.021087
  1 S  7.92700000E+01  0.081853
  1 S  2.55900000E+01  0.234817
  1 S  8.99700000E+00  0.434401
  1 S  3.31900000E+00  0.346129
  1 S  3.64300000E-01 -0.008983

  2 S  8.23600000E+03 -0.000113
  2 S  1.23500000E+03 -0.000878
  2 S  2.80800000E+02 -0.004540
  2 S  7.92700000E+01 -0.018133
  2 S  2.55900000E+01 -0.055760
  2 S  8.99700000E+00 -0.126895
  2 S  3.31900000E+00 -0.170352
  2 S  3.64300000E-01  0.598684

  3 S  9.05900000E-01  1.000000

  4 S  1.28500000E-01  1.000000

  5 S  4.40200000E-02  1.000000

  6 P  1.87100000E+01  0.014031
  6 P  4.13300000E+00  0.086866
  6 P  1.20000000E+00  0.290216

  7 P  3.82700000E-01  1.000000

  8 P  1.20900000E-01  1.000000

  9 P  3.56900000E-02  1.000000

 10 D  1.09700000E+00  1.000000

 11 D  3.18000000E-01  1.000000

 12 D  1.00000000E-01  1.000000

 13 F  7.61000000E-01  1.000000

 14 F  2.68000000E-01  1.000000

  O (Oxygen)
  ----------
            Exponent  Coefficients 
       -------------- ---------------------------------------------------------
  1 S  1.53300000E+04  0.000508
  1 S  2.29900000E+03  0.003929
  1 S  5.22400000E+02  0.020243
  1 S  1.47300000E+02  0.079181
  1 S  4.75500000E+01  0.230687
  1 S  1.67600000E+01  0.433118
  1 S  6.20700000E+00  0.350260
  1 S  6.88200000E-01 -0.008154

  2 S  1.53300000E+04 -0.000115
  2 S  2.29900000E+03 -0.000895
  2 S  5.22400000E+02 -0.004636
  2 S  1.47300000E+02 -0.018724
  2 S  4.75500000E+01 -0.058463
  2 S  1.67600000E+01 -0.136463
  2 S  6.20700000E+00 -0.175740
  2 S  6.88200000E-01  0.603418

  3 S  1.75200000E+00  1.000000

  4 S  2.38400000E-01  1.000000

  5 S  7.37600000E-02  1.000000

  6 P  3.44600000E+01  0.015928
  6 P  7.74900000E+00  0.099740
  6 P  2.28000000E+00  0.310492

  7 P  7.15600000E-01  1.000000

  8 P  2.14000000E-01  1.000000

  9 P  5.97400000E-02  1.000000

 10 D  2.31400000E+00  1.000000

 11 D  6.45000000E-01  1.000000

 12 D  2.14000000E-01  1.000000

 13 F  1.42800000E+00  1.000000

 14 F  5.00000000E-01  1.000000

  H (Hydrogen)
  ------------
            Exponent  Coefficients 
       -------------- ---------------------------------------------------------
  1 S  3.38700000E+01  0.006068
  1 S  5.09500000E+00  0.045308
  1 S  1.15900000E+00  0.202822

  2 S  3.25800000E-01  1.000000

  3 S  1.02700000E-01  1.000000

  4 S  2.52600000E-02  1.000000

  5 P  1.40700000E+00  1.000000

  6 P  3.88000000E-01  1.000000

  7 P  1.02000000E-01  1.000000

  8 D  1.05700000E+00  1.000000

  9 D  2.47000000E-01  1.000000

  F (Fluorine)
  ------------
            Exponent  Coefficients 
       -------------- ---------------------------------------------------------
  1 S  1.95000000E+04  0.000507
  1 S  2.92300000E+03  0.003923
  1 S  6.64500000E+02  0.020200
  1 S  1.87500000E+02  0.079010
  1 S  6.06200000E+01  0.230439
  1 S  2.14200000E+01  0.432872
  1 S  7.95000000E+00  0.349964
  1 S  8.81500000E-01 -0.007892

  2 S  1.95000000E+04 -0.000117
  2 S  2.92300000E+03 -0.000912
  2 S  6.64500000E+02 -0.004717
  2 S  1.87500000E+02 -0.019086
  2 S  6.06200000E+01 -0.059655
  2 S  2.14200000E+01 -0.140010
  2 S  7.95000000E+00 -0.176782
  2 S  8.81500000E-01  0.605043

  3 S  2.25700000E+00  1.000000

  4 S  3.04100000E-01  1.000000

  5 S  9.15800000E-02  1.000000

  6 P  4.38800000E+01  0.016665
  6 P  9.92600000E+00  0.104472
  6 P  2.93000000E+00  0.317260

  7 P  9.13200000E-01  1.000000

  8 P  2.67200000E-01  1.000000

  9 P  7.36100000E-02  1.000000

 10 D  3.10700000E+00  1.000000

 11 D  8.55000000E-01  1.000000

 12 D  2.92000000E-01  1.000000

 13 F  1.91700000E+00  1.000000

 14 F  7.24000000E-01  1.000000



 Summary of "ao basis" -> "ao basis" (cartesian)
 ------------------------------------------------------------------------------
       Tag                 Description            Shells   Functions and Types
 ---------------- ------------------------------  ------  ---------------------
 C                        aug-cc-pVTZ               14       55   5s4p3d2f
 O                        aug-cc-pVTZ               14       55   5s4p3d2f
 H                        aug-cc-pVTZ                9       25   4s3p2d
 F                        aug-cc-pVTZ               14       55   5s4p3d2f




 Summary of "ao basis" -> "ao basis" (cartesian)
 ------------------------------------------------------------------------------
       Tag                 Description            Shells   Functions and Types
 ---------------- ------------------------------  ------  ---------------------
 C                        aug-cc-pVTZ               14       55   5s4p3d2f
 O                        aug-cc-pVTZ               14       55   5s4p3d2f
 H                        aug-cc-pVTZ                9       25   4s3p2d
 F                        aug-cc-pVTZ               14       55   5s4p3d2f


  Caching 1-el integrals 

            General Information
            -------------------
          SCF calculation type: DFT
          Wavefunction type:  spin polarized.
          No. of atoms     :     7
          No. of electrons :    39
           Alpha electrons :    20
            Beta electrons :    19
          Charge           :     0
          Spin multiplicity:     2
          Use of symmetry is: off; symmetry adaption is: off
          Maximum number of iterations: 200
          AO basis - number of functions:   325
                     number of shells:    88
          Convergence on energy requested:  1.00D-06
          Convergence on density requested:  1.00D-05
          Convergence on gradient requested:  5.00D-04

              XC Information
              --------------
          PerdewBurkeErnzerhof Exchange Functional  1.000          
            Perdew 1991 LDA Correlation Functional  1.000 local    
           PerdewBurkeErnz. Correlation Functional  1.000 non-local

             Grid Information
             ----------------
          Grid used for XC integration:  medium    
          Radial quadrature: Mura-Knowles        
          Angular quadrature: Lebedev. 
          Tag              B.-S. Rad. Rad. Pts. Rad. Cut. Ang. Pts.
          ---              ---------- --------- --------- ---------
          C                   0.70       49          13.0       434
          O                   0.60       49          13.0       434
          H                   0.35       45          13.0       434
          F                   0.50       49          12.0       434
          Grid pruning is: on 
          Number of quadrature shells:   335
          Spatial weights used:  Erf1

          Convergence Information
          -----------------------
          Convergence aids based upon iterative change in 
          total energy or number of iterations. 
          Levelshifting, if invoked, occurs when the 
          HOMO/LUMO gap drops below (HL_TOL):  1.00D-02
          DIIS, if invoked, will attempt to extrapolate 
          using up to (NFOCK): 10 stored Fock matrices.

                    Damping(40%)  Levelshifting(0.0)       DIIS
                  --------------- ------------------- ---------------
          dE  on:    start            0.00D+00            start   
          dE off:  200 iters          0.00D+00          200 iters 


      Screening Tolerance Information
      -------------------------------
          Density screening/tol_rho:  1.00D-10
          AO Gaussian exp screening on grid/accAOfunc:  14
          CD Gaussian exp screening on grid/accCDfunc:  20
          XC Gaussian exp screening on grid/accXCfunc:  20
          Schwarz screening/accCoul:  1.00D-08


 Forcing the number of linearly dependent vectors to be  0

      Superposition of Atomic Density Guess
      -------------------------------------

 Sum of atomic energies:        -325.31628018
   Time after variat. SCF:      0.4
   Time prior to 1st pass:      0.4

 Grid_pts file          = /jet/home/hmt47/nwchem_scratch//dft.gridpts.00
 Record size in doubles =  12289        No. of grid_pts per rec  =   3070
 Max. records in memory =      5        Max. recs in file   =  67550051


           Memory utilization after 1st SCF pass: 
           Heap Space remaining (MW):       33.49            33486220
          Stack Space remaining (MW):       67.11            67106092

   convergence    iter        energy       DeltaE   RMS-Dens  Diis-err    time
 ---------------- ----- ----------------- --------- --------- ---------  ------
 d=40,ls=0.0,diis     1   -328.0362974138 -4.92D+02  3.93D-03  1.08D+01     1.4
                                                     3.84D-03  9.73D+00
 d=40,ls=0.0,diis     2   -327.6537482861  3.83D-01  2.57D-03  1.76D+00     6.0
                                                     2.87D-03  1.58D+00
 d=40,ls=0.0,diis     3   -327.3279692777  3.26D-01  1.05D-03  6.24D-01    10.6
                                                     1.86D-03  5.23D-01
 d=40,ls=0.0,diis     4   -327.3681515163 -4.02D-02  5.28D-04  2.16D-01    15.2
                                                     1.47D-03  1.71D-01
 d=40,ls=0.0,diis     5   -327.4162546465 -4.81D-02  2.68D-04  3.65D-02    19.9
                                                     9.33D-04  2.82D-02
  Resetting Diis
 d=40,ls=0.0,diis     6   -327.4270562889 -1.08D-02  1.11D-04  4.51D-03    24.5
                                                     4.63D-04  3.60D-03
 d=40,ls=0.0,diis     7   -327.4269876098  6.87D-05  3.13D-04  4.68D-03    29.2
                                                     1.37D-03  3.91D-03
 d=40,ls=0.0,diis     8   -327.3831698165  4.38D-02  1.50D-04  1.04D-01    34.2
                                                     7.11D-04  8.79D-02
 d=40,ls=0.0,diis     9   -327.4172610208 -3.41D-02  9.45D-05  2.53D-02    39.1
                                                     2.60D-04  2.34D-02
 d=40,ls=0.0,diis    10   -327.4243285339 -7.07D-03  5.28D-05  1.03D-02    43.7
                                                     2.15D-04  9.87D-03
 d=40,ls=0.0,diis    11   -327.4282546112 -3.93D-03  3.47D-05  2.33D-03    48.4
                                                     9.07D-05  2.28D-03
 d=40,ls=0.0,diis    12   -327.4291927429 -9.38D-04  2.03D-05  6.49D-04    53.0
                                                     6.87D-05  6.37D-04
 d=40,ls=0.0,diis    13   -327.4295410528 -3.48D-04  9.04D-06  7.10D-05    57.6
                                                     3.28D-05  7.03D-05
 d=40,ls=0.0,diis    14   -327.4296140489 -7.30D-05  3.03D-06  1.06D-06    62.3
                                                     5.71D-06  1.30D-06
 d=40,ls=0.0,diis    15   -327.4296320766 -1.80D-05  1.35D-06  4.22D-07    67.1
                                                     4.35D-06  4.51D-07
 d=40,ls=0.0,diis    16   -327.4296394261 -7.35D-06  6.23D-07  5.94D-08    72.2
                                                     8.78D-07  6.74D-08
 d=40,ls=0.0,diis    17   -327.4296423053 -2.88D-06  2.72D-07  6.61D-08    76.9
                                                     3.69D-07  6.64D-08
 d=40,ls=0.0,diis    18   -327.4296434738 -1.17D-06  1.41D-07  3.45D-08    81.6
                                                     5.04D-07  3.41D-08
 d=40,ls=0.0,diis    19   -327.4296439494 -4.76D-07  5.83D-08  4.36D-09    86.2
                                                     1.30D-07  4.30D-09


         Total DFT energy =     -327.429643949366
      One electron energy =     -774.827283926699
           Coulomb energy =      322.186483750720
    Exchange-Corr. energy =      -38.722601188834
 Nuclear repulsion energy =      163.933757415448

 Numeric. integr. density =       39.000002308104

     Total iterative time =     85.8s



                    DFT Final Alpha Molecular Orbital Analysis
                    ------------------------------------------

 Vector    1  Occ=1.000000D+00  E=-2.429448D+01
              MO Center=  2.0D-01, -1.2D+00,  2.2D+00, r^2= 1.2D-02
   Bfn.  Coefficient  Atom+Function         Bfn.  Coefficient  Atom+Function  
  ----- ------------  ---------------      ----- ------------  ---------------
   271      0.976977  7 F  s                 59      0.101561  2 C  s          
   273      0.064453  7 F  s                223     -0.061352  5 H  s          
   248     -0.061392  6 H  s                274     -0.059126  7 F  s          
    68      0.041933  2 C  py                85      0.036988  2 C  dxx        
    14     -0.036413  1 C  pz               275     -0.031759  7 F  s          

 Vector    2  Occ=1.000000D+00  E=-1.881919D+01
              MO Center=  1.3D-01, -1.1D+00, -6.2D-01, r^2= 1.5D-02
   Bfn.  Coefficient  Atom+Function         Bfn.  Coefficient  Atom+Function  
  ----- ------------  ---------------      ----- ------------  ---------------
   166      0.981690  4 O  s                 59      0.104147  2 C  s          
   168      0.067386  4 O  s                223     -0.065250  5 H  s          
   248     -0.065174  6 H  s                  4     -0.063770  1 C  s          
    53      0.039670  1 C  fyyz              13      0.038343  1 C  py         
    33     -0.031776  1 C  dyy               88      0.030050  2 C  dyy        

 Vector    3  Occ=1.000000D+00  E=-1.881298D+01
              MO Center= -1.9D-01,  1.1D+00, -5.1D-01, r^2= 1.5D-02
   Bfn.  Coefficient  Atom+Function         Bfn.  Coefficient  Atom+Function  
  ----- ------------  ---------------      ----- ------------  ---------------
   111      0.982604  3 O  s                 59     -0.078027  2 C  s          
   113      0.067793  3 O  s                 54      0.061502  1 C  fyzz       
   169      0.056185  4 O  s                114     -0.054226  3 O  s          
    53      0.049277  1 C  fyyz              14      0.040289  1 C  pz         
    13     -0.035655  1 C  py                10      0.031379  1 C  py         

 Vector    4  Occ=1.000000D+00  E=-1.005480D+01
              MO Center= -1.6D-02, -2.6D-02, -4.6D-02, r^2= 2.8D-02
   Bfn.  Coefficient  Atom+Function         Bfn.  Coefficient  Atom+Function  
  ----- ------------  ---------------      ----- ------------  ---------------
     1      1.012208  1 C  s                  2      0.084564  1 C  s          
   169     -0.075291  4 O  s                  3      0.067441  1 C  s          
     4     -0.045966  1 C  s                 27      0.042211  1 C  dyy        
   178     -0.036487  4 O  py               114     -0.035844  3 O  s          
    33     -0.035367  1 C  dyy               53     -0.032532  1 C  fyyz       

 Vector    5  Occ=1.000000D+00  E=-1.004045D+01
              MO Center=  6.5D-03,  1.1D-02,  1.5D+00, r^2= 2.8D-02
   Bfn.  Coefficient  Atom+Function         Bfn.  Coefficient  Atom+Function  
  ----- ------------  ---------------      ----- ------------  ---------------
    56      1.013433  2 C  s                 57      0.087000  2 C  s          
    59     -0.067155  2 C  s                 58      0.065699  2 C  s          
   222     -0.029700  5 H  s                247     -0.029676  6 H  s          
    79      0.027790  2 C  dxx               65      0.027029  2 C  py         

 Vector    6  Occ=1.000000D+00  E=-1.130110D+00
              MO Center=  1.7D-01, -1.1D+00,  2.1D+00, r^2= 4.6D-01
   Bfn.  Coefficient  Atom+Function         Bfn.  Coefficient  Atom+Function  
  ----- ------------  ---------------      ----- ------------  ---------------
   272      0.502927  7 F  s                274      0.364939  7 F  s          
   273      0.150080  7 F  s                 57      0.113552  2 C  s          
   275      0.068743  7 F  s                223      0.050910  5 H  s          
   248      0.050972  6 H  s                 59     -0.050244  2 C  s          
    62     -0.049579  2 C  py               280      0.049148  7 F  py         

 Vector    7  Occ=1.000000D+00  E=-1.037439D+00
              MO Center= -1.4D-02, -7.9D-02, -3.8D-01, r^2= 1.2D+00
   Bfn.  Coefficient  Atom+Function         Bfn.  Coefficient  Atom+Function  
  ----- ------------  ---------------      ----- ------------  ---------------
   167      0.304668  4 O  s                112      0.275830  3 O  s          
     2      0.270424  1 C  s                169      0.153126  4 O  s          
   114      0.147253  3 O  s                 59      0.096695  2 C  s          
   170      0.087245  4 O  s                168      0.086185  4 O  s          
   115      0.080919  3 O  s                  3      0.078250  1 C  s          

 Vector    8  Occ=1.000000D+00  E=-9.636637D-01
              MO Center= -3.5D-02,  6.0D-02, -4.0D-01, r^2= 1.3D+00
   Bfn.  Coefficient  Atom+Function         Bfn.  Coefficient  Atom+Function  
  ----- ------------  ---------------      ----- ------------  ---------------
   112      0.348136  3 O  s                167     -0.328852  4 O  s          
   114      0.295645  3 O  s                169     -0.280741  4 O  s          
     7      0.160793  1 C  py                59      0.120545  2 C  s          
   113      0.096255  3 O  s                168     -0.090757  4 O  s          
   120     -0.059385  3 O  py               117     -0.058764  3 O  py         

 Vector    9  Occ=1.000000D+00  E=-7.170357D-01
              MO Center=  3.7D-03, -7.1D-03,  1.2D+00, r^2= 1.6D+00
   Bfn.  Coefficient  Atom+Function         Bfn.  Coefficient  Atom+Function  
  ----- ------------  ---------------      ----- ------------  ---------------
    57      0.378273  2 C  s                 59      0.212723  2 C  s          
   272     -0.148300  7 F  s                274     -0.125365  7 F  s          
     8      0.120948  1 C  pz               112     -0.115635  3 O  s          
   222      0.116161  5 H  s                247      0.116038  6 H  s          
     2      0.110704  1 C  s                 11      0.106564  1 C  pz         

 Vector   10  Occ=1.000000D+00  E=-5.451348D-01
              MO Center=  3.0D-02, -2.3D-01,  9.0D-01, r^2= 2.7D+00
   Bfn.  Coefficient  Atom+Function         Bfn.  Coefficient  Atom+Function  
  ----- ------------  ---------------      ----- ------------  ---------------
     2      0.238400  1 C  s                 63     -0.183163  2 C  pz         
   277     -0.157456  7 F  py                66     -0.156337  2 C  pz         
   280     -0.151364  7 F  py               167     -0.145488  4 O  s          
   114     -0.140128  3 O  s                112     -0.133951  3 O  s          
     4      0.127751  1 C  s                274      0.115526  7 F  s          

 Vector   11  Occ=1.000000D+00  E=-4.919519D-01
              MO Center=  2.4D-02, -1.1D-01,  1.3D+00, r^2= 2.0D+00
   Bfn.  Coefficient  Atom+Function         Bfn.  Coefficient  Atom+Function  
  ----- ------------  ---------------      ----- ------------  ---------------
    61      0.226201  2 C  px                64      0.187726  2 C  px         
   276      0.157860  7 F  px               279      0.152273  7 F  px         
   222      0.142311  5 H  s                247     -0.141164  6 H  s          
     6      0.118489  1 C  px               221      0.105862  5 H  s          
   282      0.106276  7 F  px               246     -0.104623  6 H  s          

 Vector   12  Occ=1.000000D+00  E=-4.907621D-01
              MO Center=  9.9D-02, -6.5D-01,  1.5D+00, r^2= 2.4D+00
   Bfn.  Coefficient  Atom+Function         Bfn.  Coefficient  Atom+Function  
  ----- ------------  ---------------      ----- ------------  ---------------
    62      0.197735  2 C  py               277     -0.195847  7 F  py         
   280     -0.190924  7 F  py               278      0.187954  7 F  pz         
   281      0.183494  7 F  pz                65      0.181223  2 C  py         
   274      0.128086  7 F  s                284      0.116879  7 F  pz         
   283     -0.110987  7 F  py               167      0.106004  4 O  s          

 Vector   13  Occ=1.000000D+00  E=-4.741929D-01
              MO Center= -1.7D-02, -2.7D-02, -1.0D-01, r^2= 2.6D+00
   Bfn.  Coefficient  Atom+Function         Bfn.  Coefficient  Atom+Function  
  ----- ------------  ---------------      ----- ------------  ---------------
   117      0.191605  3 O  py               172     -0.181631  4 O  py         
   120      0.180074  3 O  py               175     -0.172665  4 O  py         
     8      0.169581  1 C  pz               114      0.167087  3 O  s          
   112      0.163549  3 O  s                  2     -0.155895  1 C  s          
   169      0.139288  4 O  s                167      0.134965  4 O  s          

 Vector   14  Occ=1.000000D+00  E=-4.425376D-01
              MO Center= -8.0D-03, -1.0D-01, -2.1D-01, r^2= 2.9D+00
   Bfn.  Coefficient  Atom+Function         Bfn.  Coefficient  Atom+Function  
  ----- ------------  ---------------      ----- ------------  ---------------
     7      0.191198  1 C  py               117     -0.171693  3 O  py         
   120     -0.165856  3 O  py               172     -0.160546  4 O  py         
   175     -0.153855  4 O  py               173     -0.150662  4 O  pz         
   176     -0.149504  4 O  pz               167      0.131696  4 O  s          
   112     -0.130477  3 O  s                118      0.128001  3 O  pz         

 Vector   15  Occ=1.000000D+00  E=-4.153905D-01
              MO Center=  2.0D-02, -2.5D-01,  2.2D-01, r^2= 2.6D+00
   Bfn.  Coefficient  Atom+Function         Bfn.  Coefficient  Atom+Function  
  ----- ------------  ---------------      ----- ------------  ---------------
     6      0.195568  1 C  px               171      0.187831  4 O  px         
   174      0.185950  4 O  px               116      0.175115  3 O  px         
   119      0.173222  3 O  px               276     -0.168016  7 F  px         
   279     -0.163372  7 F  px                 9      0.162313  1 C  px         
   282     -0.121258  7 F  px               177      0.116294  4 O  px         

 Vector   16  Occ=1.000000D+00  E=-3.749414D-01
              MO Center=  1.3D-01, -8.3D-01,  1.6D+00, r^2= 2.3D+00
   Bfn.  Coefficient  Atom+Function         Bfn.  Coefficient  Atom+Function  
  ----- ------------  ---------------      ----- ------------  ---------------
   278      0.284320  7 F  pz               281      0.278445  7 F  pz         
   277      0.207893  7 F  py               280      0.203096  7 F  py         
   284      0.201108  7 F  pz               283      0.165771  7 F  py         
   121      0.117232  3 O  pz               118      0.114597  3 O  pz         
    59     -0.108196  2 C  s                176      0.098493  4 O  pz         

 Vector   17  Occ=1.000000D+00  E=-3.428150D-01
              MO Center=  1.1D-01, -7.1D-01,  1.8D+00, r^2= 1.9D+00
   Bfn.  Coefficient  Atom+Function         Bfn.  Coefficient  Atom+Function  
  ----- ------------  ---------------      ----- ------------  ---------------
   276      0.325473  7 F  px               279      0.318868  7 F  px         
   282      0.235997  7 F  px                64     -0.160703  2 C  px         
    61     -0.149122  2 C  px               223     -0.115646  5 H  s          
   248      0.115077  6 H  s                222     -0.110917  5 H  s          
   247      0.111147  6 H  s                171      0.106955  4 O  px         

 Vector   18  Occ=1.000000D+00  E=-3.058898D-01
              MO Center= -4.3D-02,  1.1D-01, -4.7D-01, r^2= 2.0D+00
   Bfn.  Coefficient  Atom+Function         Bfn.  Coefficient  Atom+Function  
  ----- ------------  ---------------      ----- ------------  ---------------
   119      0.292100  3 O  px               116      0.288599  3 O  px         
   174     -0.262296  4 O  px               171     -0.258312  4 O  px         
   122      0.181200  3 O  px               177     -0.157662  4 O  px         
    31      0.076551  1 C  dxy               25      0.075573  1 C  dxy        
   276      0.056868  7 F  px               279      0.055922  7 F  px         

 Vector   19  Occ=1.000000D+00  E=-3.048438D-01
              MO Center=  7.6D-02, -6.8D-01, -1.6D-01, r^2= 2.1D+00
   Bfn.  Coefficient  Atom+Function         Bfn.  Coefficient  Atom+Function  
  ----- ------------  ---------------      ----- ------------  ---------------
   176      0.317407  4 O  pz               173      0.308169  4 O  pz         
   179      0.191167  4 O  pz                66      0.155423  2 C  pz         
    63      0.141977  2 C  pz               175     -0.130711  4 O  py         
   172     -0.129115  4 O  py               120     -0.119614  3 O  py         
   117     -0.118775  3 O  py               178     -0.111133  4 O  py         

 Vector   20  Occ=1.000000D+00  E=-3.015336D-01
              MO Center= -1.1D-01,  5.9D-01, -2.1D-01, r^2= 2.1D+00
   Bfn.  Coefficient  Atom+Function         Bfn.  Coefficient  Atom+Function  
  ----- ------------  ---------------      ----- ------------  ---------------
   121      0.321646  3 O  pz               118      0.317411  3 O  pz         
   124      0.215678  3 O  pz               175      0.155885  4 O  py         
   172      0.149411  4 O  py               120      0.138779  3 O  py         
   117      0.133819  3 O  py               278     -0.114373  7 F  pz         
   281     -0.113004  7 F  pz                59      0.104174  2 C  s          

 Vector   21  Occ=0.000000D+00  E=-6.775737D-02
              MO Center= -2.4D-02,  4.4D-02,  5.9D-02, r^2= 2.4D+00
   Bfn.  Coefficient  Atom+Function         Bfn.  Coefficient  Atom+Function  
  ----- ------------  ---------------      ----- ------------  ---------------
     9      0.341725  1 C  px                 6      0.317305  1 C  px         
    12      0.307830  1 C  px               224     -0.258033  5 H  s          
   249      0.257807  6 H  s                177     -0.217376  4 O  px         
   122     -0.211230  3 O  px               174     -0.208216  4 O  px         
   171     -0.198601  4 O  px               119     -0.192046  3 O  px         

 Vector   22  Occ=0.000000D+00  E=-3.352211D-02
              MO Center=  2.5D-02, -6.5D-02,  2.0D+00, r^2= 8.2D+00
   Bfn.  Coefficient  Atom+Function         Bfn.  Coefficient  Atom+Function  
  ----- ------------  ---------------      ----- ------------  ---------------
    59      0.880646  2 C  s                224      0.624540  5 H  s          
   249      0.624960  6 H  s                  4     -0.573318  1 C  s          
    60     -0.510495  2 C  s                  5     -0.341890  1 C  s          
    71     -0.320985  2 C  py                85      0.320996  2 C  dxx        
   115      0.304767  3 O  s                223     -0.295118  5 H  s          

 Vector   23  Occ=0.000000D+00  E=-1.515967D-02
              MO Center= -1.2D-01,  8.3D-01,  1.4D+00, r^2= 7.3D+00
   Bfn.  Coefficient  Atom+Function         Bfn.  Coefficient  Atom+Function  
  ----- ------------  ---------------      ----- ------------  ---------------
     5      2.136707  1 C  s                 60     -0.914046  2 C  s          
    72      0.730415  2 C  pz                59      0.708317  2 C  s          
    17      0.561329  1 C  pz               249     -0.526982  6 H  s          
   224     -0.523942  5 H  s                170     -0.439518  4 O  s          
    71     -0.398278  2 C  py               274     -0.224218  7 F  s          

 Vector   24  Occ=0.000000D+00  E= 7.750002D-03
              MO Center= -9.3D-02,  7.4D-01,  1.7D+00, r^2= 1.5D+01
   Bfn.  Coefficient  Atom+Function         Bfn.  Coefficient  Atom+Function  
  ----- ------------  ---------------      ----- ------------  ---------------
   224      2.821381  5 H  s                249     -2.819907  6 H  s          
   223      1.353665  5 H  s                248     -1.355511  6 H  s          
    67     -1.216709  2 C  px                70     -1.076575  2 C  px         
    15      0.364909  1 C  px                86     -0.225640  2 C  dxy        
    87     -0.192724  2 C  dxz               12      0.177738  1 C  px         

 Vector   25  Occ=0.000000D+00  E= 1.458693D-02
              MO Center= -2.7D-02,  1.0D-01,  4.2D-01, r^2= 1.6D+01
   Bfn.  Coefficient  Atom+Function         Bfn.  Coefficient  Atom+Function  
  ----- ------------  ---------------      ----- ------------  ---------------
    60      7.659771  2 C  s                  5     -6.277909  1 C  s          
    59     -4.074819  2 C  s                 72     -2.273332  2 C  pz         
    17     -2.181985  1 C  pz               223      1.989291  5 H  s          
   248      1.988542  6 H  s                 85     -1.536861  2 C  dxx        
    88     -1.190922  2 C  dyy               90     -1.180392  2 C  dzz        

 Vector   26  Occ=0.000000D+00  E= 4.418876D-02
              MO Center=  2.6D-02, -1.9D-01,  1.0D+00, r^2= 1.6D+01
   Bfn.  Coefficient  Atom+Function         Bfn.  Coefficient  Atom+Function  
  ----- ------------  ---------------      ----- ------------  ---------------
    17      2.512708  1 C  pz                 5      1.922218  1 C  s          
    69     -1.309456  2 C  pz                72     -1.265001  2 C  pz         
    60      1.114730  2 C  s                223      0.868823  5 H  s          
   248      0.863261  6 H  s                 85     -0.852967  2 C  dxx        
   115     -0.768810  3 O  s                 16      0.723670  1 C  py         

 Vector   27  Occ=0.000000D+00  E= 5.089952D-02
              MO Center=  3.7D-02, -3.5D-01,  3.2D-01, r^2= 1.5D+01
   Bfn.  Coefficient  Atom+Function         Bfn.  Coefficient  Atom+Function  
  ----- ------------  ---------------      ----- ------------  ---------------
    60      5.412793  2 C  s                  5     -3.449974  1 C  s          
   115     -2.489303  3 O  s                 17     -2.005332  1 C  pz         
     4      1.379907  1 C  s                 16      1.198824  1 C  py         
   170      1.078060  4 O  s                 68      0.918152  2 C  py         
    33      0.769238  1 C  dyy               71      0.763987  2 C  py         

 Vector   28  Occ=0.000000D+00  E= 5.690526D-02
              MO Center= -1.3D-02,  2.3D-01,  8.7D-01, r^2= 2.0D+01
   Bfn.  Coefficient  Atom+Function         Bfn.  Coefficient  Atom+Function  
  ----- ------------  ---------------      ----- ------------  ---------------
    60     -4.351409  2 C  s                 59      4.203507  2 C  s          
     4     -3.761500  1 C  s                  5     -3.143329  1 C  s          
   170      3.033985  4 O  s                 16      2.545413  1 C  py         
    71     -2.502297  2 C  py               224      1.804592  5 H  s          
   249      1.646211  6 H  s                 90      1.505397  2 C  dzz        

 Vector   29  Occ=0.000000D+00  E= 5.696937D-02
              MO Center= -4.5D-02,  2.0D-03, -5.8D-02, r^2= 1.5D+01
   Bfn.  Coefficient  Atom+Function         Bfn.  Coefficient  Atom+Function  
  ----- ------------  ---------------      ----- ------------  ---------------
    15      2.741807  1 C  px                70     -1.447754  2 C  px         
   223     -1.062009  5 H  s                248      0.888583  6 H  s          
   249      0.880721  6 H  s                 16      0.716955  1 C  py         
    67      0.637671  2 C  px                60     -0.527451  2 C  s          
    71     -0.521303  2 C  py                59      0.500304  2 C  s          

 Vector   30  Occ=0.000000D+00  E= 6.895234D-02
              MO Center= -9.1D-02,  7.0D-01,  1.8D+00, r^2= 1.8D+01
   Bfn.  Coefficient  Atom+Function         Bfn.  Coefficient  Atom+Function  
  ----- ------------  ---------------      ----- ------------  ---------------
     5     11.510399  1 C  s                 72      3.553125  2 C  pz         
    59     -3.506041  2 C  s                  4      3.340687  1 C  s          
   115     -2.942901  3 O  s                 16      2.233708  1 C  py         
   249     -2.078464  6 H  s                224     -2.064230  5 H  s          
    71     -1.510810  2 C  py               223      1.511821  5 H  s          

 Vector   31  Occ=0.000000D+00  E= 7.652910D-02
              MO Center= -9.6D-02,  7.9D-01,  1.9D+00, r^2= 2.1D+01
   Bfn.  Coefficient  Atom+Function         Bfn.  Coefficient  Atom+Function  
  ----- ------------  ---------------      ----- ------------  ---------------
   224      7.012520  5 H  s                249     -7.007054  6 H  s          
   223      6.542470  5 H  s                248     -6.543704  6 H  s          
    67     -5.525105  2 C  px                70     -5.477942  2 C  px         
    86     -1.687932  2 C  dxy               64      0.917271  2 C  px         
   256     -0.861365  6 H  px                68     -0.795945  2 C  py         

 Vector   32  Occ=0.000000D+00  E= 8.649121D-02
              MO Center= -4.3D-02,  2.2D-01,  5.0D-01, r^2= 1.6D+01
   Bfn.  Coefficient  Atom+Function         Bfn.  Coefficient  Atom+Function  
  ----- ------------  ---------------      ----- ------------  ---------------
     4     10.560935  1 C  s                  5      8.849552  1 C  s          
    59     -8.706564  2 C  s                115     -6.772962  3 O  s          
   170     -4.497606  4 O  s                 35      3.449134  1 C  dzz        
   275     -3.019529  7 F  s                 69      2.688353  2 C  pz         
    14      2.404591  1 C  pz               126      2.415102  3 O  py         

 Vector   33  Occ=0.000000D+00  E= 9.351317D-02
              MO Center= -1.3D-02,  1.6D-01,  1.5D+00, r^2= 1.2D+01
   Bfn.  Coefficient  Atom+Function         Bfn.  Coefficient  Atom+Function  
  ----- ------------  ---------------      ----- ------------  ---------------
   248     -2.580859  6 H  s                223      2.566319  5 H  s          
   224      1.991041  5 H  s                249     -1.984388  6 H  s          
    87     -1.883516  2 C  dxz               67     -1.642983  2 C  px         
   256     -1.210691  6 H  px               232     -1.107337  5 H  py         
   231     -0.931480  5 H  px                12     -0.906944  1 C  px         

 Vector   34  Occ=0.000000D+00  E= 1.030129D-01
              MO Center= -2.4D-02,  6.0D-02,  2.0D-01, r^2= 1.5D+01
   Bfn.  Coefficient  Atom+Function         Bfn.  Coefficient  Atom+Function  
  ----- ------------  ---------------      ----- ------------  ---------------
     5     28.387508  1 C  s                 60    -26.187276  2 C  s          
    59      8.720542  2 C  s                 17      6.028840  1 C  pz         
     4     -5.569298  1 C  s                 72      5.013866  2 C  pz         
    14     -4.103782  1 C  pz                69     -3.620546  2 C  pz         
    90      3.300081  2 C  dzz               35     -3.061671  1 C  dzz        

 Vector   35  Occ=0.000000D+00  E= 1.250022D-01
              MO Center= -1.4D-02,  9.2D-02,  1.0D+00, r^2= 1.2D+01
   Bfn.  Coefficient  Atom+Function         Bfn.  Coefficient  Atom+Function  
  ----- ------------  ---------------      ----- ------------  ---------------
    59     13.950409  2 C  s                  5     12.447940  1 C  s          
    60    -11.280940  2 C  s                223     -6.877187  5 H  s          
   248     -6.890628  6 H  s                  4     -4.466218  1 C  s          
    85      4.385012  2 C  dxx               88      3.866913  2 C  dyy        
    72      3.619387  2 C  pz               275     -3.619538  7 F  s          

 Vector   36  Occ=0.000000D+00  E= 1.338324D-01
              MO Center=  8.8D-02, -6.5D-01,  7.2D-01, r^2= 1.5D+01
   Bfn.  Coefficient  Atom+Function         Bfn.  Coefficient  Atom+Function  
  ----- ------------  ---------------      ----- ------------  ---------------
     5     14.736389  1 C  s                  4     12.511797  1 C  s          
    60    -11.554646  2 C  s                170     -9.485398  4 O  s          
   115     -7.080684  3 O  s                275      5.479095  7 F  s          
    59     -5.376832  2 C  s                 33      4.449609  1 C  dyy        
    72      3.923552  2 C  pz                35      3.655630  1 C  dzz        

 Vector   37  Occ=0.000000D+00  E= 1.439773D-01
              MO Center= -1.7D-02, -1.6D-02,  5.2D-03, r^2= 1.3D+01
   Bfn.  Coefficient  Atom+Function         Bfn.  Coefficient  Atom+Function  
  ----- ------------  ---------------      ----- ------------  ---------------
    70      2.660724  2 C  px               224     -2.125227  5 H  s          
   249      2.127982  6 H  s                 31     -1.925743  1 C  dxy        
   125      1.750994  3 O  px               180     -1.387328  4 O  px         
   223     -1.240202  5 H  s                248      1.199022  6 H  s          
    15     -1.099512  1 C  px                86      0.860072  2 C  dxy        

 Vector   38  Occ=0.000000D+00  E= 1.511794D-01
              MO Center= -5.8D-03, -3.9D-02,  4.5D-01, r^2= 1.3D+01
   Bfn.  Coefficient  Atom+Function         Bfn.  Coefficient  Atom+Function  
  ----- ------------  ---------------      ----- ------------  ---------------
     5      6.092699  1 C  s                 59     -3.410256  2 C  s          
    60     -3.089132  2 C  s                 34      2.746511  1 C  dyz        
     4      2.648934  1 C  s                 72      2.313715  2 C  pz         
    16     -2.111507  1 C  py                71      2.120037  2 C  py         
   127     -1.920921  3 O  pz               170     -1.926732  4 O  s          

 Vector   39  Occ=0.000000D+00  E= 1.621381D-01
              MO Center=  5.5D-02, -4.5D-01,  4.6D-01, r^2= 1.5D+01
   Bfn.  Coefficient  Atom+Function         Bfn.  Coefficient  Atom+Function  
  ----- ------------  ---------------      ----- ------------  ---------------
    59     27.069516  2 C  s                223    -13.589114  5 H  s          
   248    -13.608159  6 H  s                 60    -11.535049  2 C  s          
    85      6.468430  2 C  dxx               88      6.265132  2 C  dyy        
    90      6.104695  2 C  dzz              115      5.035483  3 O  s          
   275     -4.674068  7 F  s                  5      4.017454  1 C  s          

 Vector   40  Occ=0.000000D+00  E= 1.704477D-01
              MO Center= -4.6D-03,  3.8D-02,  1.1D+00, r^2= 1.1D+01
   Bfn.  Coefficient  Atom+Function         Bfn.  Coefficient  Atom+Function  
  ----- ------------  ---------------      ----- ------------  ---------------
    67      5.349142  2 C  px                86      4.895934  2 C  dxy        
   223     -3.774051  5 H  s                248      3.737267  6 H  s          
    87     -2.864161  2 C  dxz               70     -2.503103  2 C  px         
   285      2.292482  7 F  px               258     -2.060811  6 H  pz         
   233      2.042028  5 H  pz                12     -1.746400  1 C  px         

 Vector   41  Occ=0.000000D+00  E= 1.773427D-01
              MO Center= -7.4D-03, -1.6D-01, -5.7D-01, r^2= 1.4D+01
   Bfn.  Coefficient  Atom+Function         Bfn.  Coefficient  Atom+Function  
  ----- ------------  ---------------      ----- ------------  ---------------
     5      5.269454  1 C  s                170     -5.140694  4 O  s          
     4     -4.144224  1 C  s                 69     -3.959447  2 C  pz         
    34      3.481655  1 C  dyz              275      3.333217  7 F  s          
    17     -2.762399  1 C  pz               181     -2.695868  4 O  py         
    89      2.600365  2 C  dyz              182      2.292702  4 O  pz         

 Vector   42  Occ=0.000000D+00  E= 1.829322D-01
              MO Center=  1.2D-02, -2.5D-01, -3.1D-01, r^2= 1.4D+01
   Bfn.  Coefficient  Atom+Function         Bfn.  Coefficient  Atom+Function  
  ----- ------------  ---------------      ----- ------------  ---------------
    15      4.359679  1 C  px               180     -2.912404  4 O  px         
   223      2.532594  5 H  s                248     -2.531167  6 H  s          
   125     -2.391982  3 O  px                67     -1.265797  2 C  px         
    32     -1.109278  1 C  dxz              249      1.053194  6 H  s          
   224     -1.046879  5 H  s                 12      0.834159  1 C  px         

 Vector   43  Occ=0.000000D+00  E= 1.897293D-01
              MO Center= -4.5D-02,  1.1D-01, -6.6D-01, r^2= 1.4D+01
   Bfn.  Coefficient  Atom+Function         Bfn.  Coefficient  Atom+Function  
  ----- ------------  ---------------      ----- ------------  ---------------
     5     19.208040  1 C  s                170     -7.907090  4 O  s          
    17      7.584621  1 C  pz                60     -7.116025  2 C  s          
   115     -4.773547  3 O  s                 69     -4.436378  2 C  pz         
     4      4.382842  1 C  s                182     -3.380566  4 O  pz         
    59     -3.168245  2 C  s                127     -3.072199  3 O  pz         

 Vector   44  Occ=0.000000D+00  E= 1.995182D-01
              MO Center=  6.2D-02, -4.0D-01,  1.3D+00, r^2= 1.4D+01
   Bfn.  Coefficient  Atom+Function         Bfn.  Coefficient  Atom+Function  
  ----- ------------  ---------------      ----- ------------  ---------------
    60     14.934346  2 C  s                  5    -12.529530  1 C  s          
   223     -6.294570  5 H  s                248     -6.302873  6 H  s          
    68      4.962400  2 C  py               170      3.649030  4 O  s          
    69      3.297266  2 C  pz                 4      3.088802  1 C  s          
    16      2.635631  1 C  py                14      2.403580  1 C  pz         

 Vector   45  Occ=0.000000D+00  E= 2.093077D-01
              MO Center=  1.4D-01, -9.4D-01,  1.4D+00, r^2= 1.5D+01
   Bfn.  Coefficient  Atom+Function         Bfn.  Coefficient  Atom+Function  
  ----- ------------  ---------------      ----- ------------  ---------------
    59     12.487986  2 C  s                170     -7.803160  4 O  s          
     5      6.674681  1 C  s                223     -6.161105  5 H  s          
   248     -6.177838  6 H  s                275     -5.644692  7 F  s          
    16     -5.100076  1 C  py                71      5.064036  2 C  py         
    88      4.687349  2 C  dyy                4      4.547408  1 C  s          

 Vector   46  Occ=0.000000D+00  E= 2.239684D-01
              MO Center=  7.4D-02, -4.3D-01,  1.5D+00, r^2= 1.0D+01
   Bfn.  Coefficient  Atom+Function         Bfn.  Coefficient  Atom+Function  
  ----- ------------  ---------------      ----- ------------  ---------------
    70      2.704606  2 C  px               285     -2.054507  7 F  px         
    87     -1.857441  2 C  dxz               15     -1.822148  1 C  px         
   223      1.652105  5 H  s                224     -1.630277  5 H  s          
   249      1.620122  6 H  s                248     -1.443777  6 H  s          
    32     -1.391043  1 C  dxz              232     -1.165723  5 H  py         

 Vector   47  Occ=0.000000D+00  E= 2.245700D-01
              MO Center= -7.7D-02,  4.0D-01,  2.6D-01, r^2= 1.3D+01
   Bfn.  Coefficient  Atom+Function         Bfn.  Coefficient  Atom+Function  
  ----- ------------  ---------------      ----- ------------  ---------------
    60    -23.206953  2 C  s                 59     21.413425  2 C  s          
     5     21.124323  1 C  s                115    -12.175912  3 O  s          
     4     -7.163197  1 C  s                 85      6.207880  2 C  dxx        
    90      6.019615  2 C  dzz               14     -5.801019  1 C  pz         
   248     -5.212473  6 H  s                223     -5.159407  5 H  s          

 Vector   48  Occ=0.000000D+00  E= 2.391636D-01
              MO Center=  4.8D-02, -3.1D-01,  1.2D+00, r^2= 1.4D+01
   Bfn.  Coefficient  Atom+Function         Bfn.  Coefficient  Atom+Function  
  ----- ------------  ---------------      ----- ------------  ---------------
     5     23.329411  1 C  s                115    -11.283214  3 O  s          
   170     -9.497532  4 O  s                 59     -6.840340  2 C  s          
   248      6.372867  6 H  s                223      6.330049  5 H  s          
     4      6.085485  1 C  s                 60     -5.774566  2 C  s          
    72      5.598146  2 C  pz                88     -5.246567  2 C  dyy        

 Vector   49  Occ=0.000000D+00  E= 2.447747D-01
              MO Center=  3.7D-03,  4.3D-02,  1.7D+00, r^2= 1.4D+01
   Bfn.  Coefficient  Atom+Function         Bfn.  Coefficient  Atom+Function  
  ----- ------------  ---------------      ----- ------------  ---------------
   223     20.068227  5 H  s                248    -20.045704  6 H  s          
    67    -17.686048  2 C  px                70     -6.972322  2 C  px         
   224      6.288254  5 H  s                249     -6.293613  6 H  s          
    86     -5.147069  2 C  dxy               87     -3.199377  2 C  dxz        
   232     -2.996048  5 H  py               256     -2.625440  6 H  px         

 Vector   50  Occ=0.000000D+00  E= 2.526893D-01
              MO Center= -7.2D-02,  4.9D-01,  9.1D-01, r^2= 1.3D+01
   Bfn.  Coefficient  Atom+Function         Bfn.  Coefficient  Atom+Function  
  ----- ------------  ---------------      ----- ------------  ---------------
    59     20.857995  2 C  s                  4    -17.108054  1 C  s          
    60    -15.486340  2 C  s                115      9.453014  3 O  s          
   170      7.297379  4 O  s                 90      6.915079  2 C  dzz        
     5      6.879455  1 C  s                 33     -6.707487  1 C  dyy        
   223     -6.429766  5 H  s                248     -6.441889  6 H  s          

 Vector   51  Occ=0.000000D+00  E= 2.679405D-01
              MO Center= -5.2D-02,  3.6D-01,  1.0D+00, r^2= 1.0D+01
   Bfn.  Coefficient  Atom+Function         Bfn.  Coefficient  Atom+Function  
  ----- ------------  ---------------      ----- ------------  ---------------
   248     -6.075956  6 H  s                223      6.006794  5 H  s          
    67     -2.858653  2 C  px                32     -2.842916  1 C  dxz        
   232     -2.436521  5 H  py               256     -2.240540  6 H  px         
   257      1.881453  6 H  py               258      1.842819  6 H  pz         
   233     -1.776105  5 H  pz               231     -1.671917  5 H  px         

 Vector   52  Occ=0.000000D+00  E= 2.757958D-01
              MO Center=  2.3D-02, -1.5D-01,  1.1D+00, r^2= 1.0D+01
   Bfn.  Coefficient  Atom+Function         Bfn.  Coefficient  Atom+Function  
  ----- ------------  ---------------      ----- ------------  ---------------
    69     13.666619  2 C  pz               223    -12.604980  5 H  s          
   248    -12.612672  6 H  s                  4     11.347219  1 C  s          
    14      8.903196  1 C  pz                59      8.159372  2 C  s          
   170      6.173966  4 O  s                  5      5.679680  1 C  s          
   115      4.950466  3 O  s                 33     -4.488610  1 C  dyy        

 Vector   53  Occ=0.000000D+00  E= 2.780427D-01
              MO Center= -2.1D-02,  1.7D-01,  1.3D+00, r^2= 1.1D+01
   Bfn.  Coefficient  Atom+Function         Bfn.  Coefficient  Atom+Function  
  ----- ------------  ---------------      ----- ------------  ---------------
    60     13.478146  2 C  s                  5     -9.293275  1 C  s          
    14      6.494234  1 C  pz               170      6.170364  4 O  s          
     4      5.002459  1 C  s                 85     -4.559112  2 C  dxx        
    69      4.175427  2 C  pz               275     -3.957478  7 F  s          
    90     -3.837294  2 C  dzz               13      2.735866  1 C  py         

 Vector   54  Occ=0.000000D+00  E= 3.152243D-01
              MO Center=  1.8D-02, -2.2D-01,  4.7D-01, r^2= 9.9D+00
   Bfn.  Coefficient  Atom+Function         Bfn.  Coefficient  Atom+Function  
  ----- ------------  ---------------      ----- ------------  ---------------
   223     10.598183  5 H  s                248    -10.584953  6 H  s          
    87     -8.042511  2 C  dxz               32     -5.067407  1 C  dxz        
    86     -3.526313  2 C  dxy              231     -2.768457  5 H  px         
   256     -2.700040  6 H  px                67     -2.365839  2 C  px         
   180     -2.153303  4 O  px                12     -1.984699  1 C  px         

 Vector   55  Occ=0.000000D+00  E= 3.162906D-01
              MO Center= -3.5D-02,  6.0D-02, -5.6D-01, r^2= 1.1D+01
   Bfn.  Coefficient  Atom+Function         Bfn.  Coefficient  Atom+Function  
  ----- ------------  ---------------      ----- ------------  ---------------
    59     51.515440  2 C  s                  4    -33.666541  1 C  s          
    14    -16.804297  1 C  pz                35    -15.057635  1 C  dzz        
   223    -12.267148  5 H  s                 60    -12.162641  2 C  s          
   248    -12.126577  6 H  s                 69    -11.246415  2 C  pz         
    90     10.552076  2 C  dzz              170      9.482298  4 O  s          

 Vector   56  Occ=0.000000D+00  E= 3.204740D-01
              MO Center= -1.5D-02,  1.6D-01,  1.4D+00, r^2= 1.0D+01
   Bfn.  Coefficient  Atom+Function         Bfn.  Coefficient  Atom+Function  
  ----- ------------  ---------------      ----- ------------  ---------------
   223     20.425080  5 H  s                248    -20.451959  6 H  s          
    67    -14.644230  2 C  px               256     -7.483746  6 H  px         
   231     -6.750251  5 H  px                86     -4.206894  2 C  dxy        
   232     -3.695390  5 H  py                70      3.254368  2 C  px         
   285     -2.220728  7 F  px                68     -2.114487  2 C  py         

 Vector   57  Occ=0.000000D+00  E= 3.213670D-01
              MO Center= -2.8D-02,  1.7D-01,  8.3D-01, r^2= 1.0D+01
   Bfn.  Coefficient  Atom+Function         Bfn.  Coefficient  Atom+Function  
  ----- ------------  ---------------      ----- ------------  ---------------
     5     15.211776  1 C  s                 59     -9.721758  2 C  s          
    60     -8.181471  2 C  s                248      4.998978  6 H  s          
   223      4.949546  5 H  s                 35     -4.818346  1 C  dzz        
    33     -4.633494  1 C  dyy              115      4.361363  3 O  s          
    30     -4.176035  1 C  dxx               90     -4.003226  2 C  dzz        

 Vector   58  Occ=0.000000D+00  E= 3.393389D-01
              MO Center=  1.7D-02, -7.3D-02,  1.4D+00, r^2= 1.1D+01
   Bfn.  Coefficient  Atom+Function         Bfn.  Coefficient  Atom+Function  
  ----- ------------  ---------------      ----- ------------  ---------------
    59     28.331609  2 C  s                223    -17.855615  5 H  s          
   248    -17.877529  6 H  s                  4     12.095148  1 C  s          
    68     10.831114  2 C  py                60     -9.910562  2 C  s          
   170     -8.563190  4 O  s                 85      6.679216  2 C  dxx        
   275      6.612622  7 F  s                 69      6.230985  2 C  pz         

 Vector   59  Occ=0.000000D+00  E= 3.634258D-01
              MO Center=  5.0D-02, -5.0D-01, -1.2D-02, r^2= 9.9D+00
   Bfn.  Coefficient  Atom+Function         Bfn.  Coefficient  Atom+Function  
  ----- ------------  ---------------      ----- ------------  ---------------
     5     31.997272  1 C  s                  4     26.156207  1 C  s          
    60    -19.239868  2 C  s                170    -18.934051  4 O  s          
   115    -14.630700  3 O  s                275      9.819387  7 F  s          
   248     -6.701544  6 H  s                223     -6.576094  5 H  s          
    33      6.370523  1 C  dyy               35      5.974889  1 C  dzz        

 Vector   60  Occ=0.000000D+00  E= 3.691812D-01
              MO Center= -8.3D-02,  6.2D-01,  1.2D+00, r^2= 8.0D+00
   Bfn.  Coefficient  Atom+Function         Bfn.  Coefficient  Atom+Function  
  ----- ------------  ---------------      ----- ------------  ---------------
   223      9.746731  5 H  s                248     -9.527357  6 H  s          
    87     -3.423040  2 C  dxz               31      2.969257  1 C  dxy        
   256     -2.958522  6 H  px                67     -2.924937  2 C  px         
   231     -2.538458  5 H  px                70     -2.176528  2 C  px         
   222     -1.990644  5 H  s                247      1.975103  6 H  s          

 Vector   61  Occ=0.000000D+00  E= 3.745218D-01
              MO Center=  1.3D-01, -8.5D-01,  1.7D+00, r^2= 9.9D+00
   Bfn.  Coefficient  Atom+Function         Bfn.  Coefficient  Atom+Function  
  ----- ------------  ---------------      ----- ------------  ---------------
    59     68.622993  2 C  s                223    -39.591144  5 H  s          
   248    -39.648427  6 H  s                275    -21.513091  7 F  s          
    88     20.216556  2 C  dyy               85     16.516783  2 C  dxx        
    90     16.026789  2 C  dzz                4    -12.501043  1 C  s          
    60    -11.543342  2 C  s                 69     10.082774  2 C  pz         

 Vector   62  Occ=0.000000D+00  E= 3.906339D-01
              MO Center= -2.6D-02,  1.9D-01,  1.2D+00, r^2= 8.1D+00
   Bfn.  Coefficient  Atom+Function         Bfn.  Coefficient  Atom+Function  
  ----- ------------  ---------------      ----- ------------  ---------------
    59     40.240973  2 C  s                223    -27.975506  5 H  s          
   248    -28.009536  6 H  s                 85     14.800512  2 C  dxx        
    60     -9.810154  2 C  s                232      8.048426  5 H  py         
   257      7.345919  6 H  py                69      7.018407  2 C  pz         
    90      6.478055  2 C  dzz                5      5.686722  1 C  s          

 Vector   63  Occ=0.000000D+00  E= 3.955639D-01
              MO Center= -5.6D-02,  4.5D-01,  1.7D+00, r^2= 8.0D+00
   Bfn.  Coefficient  Atom+Function         Bfn.  Coefficient  Atom+Function  
  ----- ------------  ---------------      ----- ------------  ---------------
    87     11.591458  2 C  dxz              223      9.219246  5 H  s          
   248     -9.060853  6 H  s                258      5.117614  6 H  pz         
    67     -5.042465  2 C  px               233     -5.034494  5 H  pz         
    12      4.819804  1 C  px               231     -3.280934  5 H  px         
   256     -2.779996  6 H  px                86     -2.694517  2 C  dxy        

 Vector   64  Occ=0.000000D+00  E= 3.980952D-01
              MO Center= -1.1D-01,  7.5D-01,  8.0D-01, r^2= 9.5D+00
   Bfn.  Coefficient  Atom+Function         Bfn.  Coefficient  Atom+Function  
  ----- ------------  ---------------      ----- ------------  ---------------
     5     27.946404  1 C  s                 59     27.404390  2 C  s          
    60    -27.107797  2 C  s                 88      9.574479  2 C  dyy        
   115     -9.001084  3 O  s                170     -8.743760  4 O  s          
    90      8.410194  2 C  dzz              248     -8.362872  6 H  s          
   223     -8.193601  5 H  s                275     -6.963911  7 F  s          

 Vector   65  Occ=0.000000D+00  E= 4.255079D-01
              MO Center= -2.5D-02,  1.8D-01,  1.1D+00, r^2= 8.0D+00
   Bfn.  Coefficient  Atom+Function         Bfn.  Coefficient  Atom+Function  
  ----- ------------  ---------------      ----- ------------  ---------------
    59     36.423761  2 C  s                223    -19.047920  5 H  s          
   248    -19.104023  6 H  s                  5      9.961871  1 C  s          
    85      9.624079  2 C  dxx               89     -7.714216  2 C  dyz        
    90      7.402327  2 C  dzz              275     -6.740952  7 F  s          
    60     -6.675223  2 C  s                170     -6.249561  4 O  s          

 Vector   66  Occ=0.000000D+00  E= 4.305992D-01
              MO Center=  5.0D-02, -4.5D-01,  2.4D-01, r^2= 9.3D+00
   Bfn.  Coefficient  Atom+Function         Bfn.  Coefficient  Atom+Function  
  ----- ------------  ---------------      ----- ------------  ---------------
   223     14.845095  5 H  s                248    -14.784694  6 H  s          
    86    -11.563266  2 C  dxy               67    -10.055480  2 C  px         
    31      7.721548  1 C  dxy               87     -4.013059  2 C  dxz        
   231     -3.214162  5 H  px               256     -3.110804  6 H  px         
    12     -3.060611  1 C  px               285     -1.927428  7 F  px         

 Vector   67  Occ=0.000000D+00  E= 4.519164D-01
              MO Center=  3.1D-02, -3.4D-01,  1.3D-01, r^2= 1.1D+01
   Bfn.  Coefficient  Atom+Function         Bfn.  Coefficient  Atom+Function  
  ----- ------------  ---------------      ----- ------------  ---------------
    34     18.803811  1 C  dyz              223    -14.720181  5 H  s          
   248    -14.601813  6 H  s                 89     14.429126  2 C  dyz        
   115     13.932386  3 O  s                275     12.352570  7 F  s          
    59      9.409608  2 C  s                  5     -7.480273  1 C  s          
    69      5.848713  2 C  pz                85      5.343251  2 C  dxx        

 Vector   68  Occ=0.000000D+00  E= 4.703609D-01
              MO Center= -5.5D-03, -6.6D-02,  1.4D-01, r^2= 9.1D+00
   Bfn.  Coefficient  Atom+Function         Bfn.  Coefficient  Atom+Function  
  ----- ------------  ---------------      ----- ------------  ---------------
    59     18.301570  2 C  s                 13     14.317122  1 C  py         
    60    -13.246887  2 C  s                223     -9.265694  5 H  s          
   170      9.150996  4 O  s                248     -9.167413  6 H  s          
    34     -8.447102  1 C  dyz               85      8.045321  2 C  dxx        
   115     -7.681844  3 O  s                  5      6.651262  1 C  s          

 Vector   69  Occ=0.000000D+00  E= 4.786597D-01
              MO Center=  2.5D-02,  3.4D-01,  1.2D+00, r^2= 9.4D+00
   Bfn.  Coefficient  Atom+Function         Bfn.  Coefficient  Atom+Function  
  ----- ------------  ---------------      ----- ------------  ---------------
     4     26.325767  1 C  s                170    -15.333888  4 O  s          
     5     13.830070  1 C  s                 33     13.189483  1 C  dyy        
   115    -12.654763  3 O  s                 59     -6.205572  2 C  s          
   114     -6.213452  3 O  s                 34      5.726915  1 C  dyz        
    13      5.140005  1 C  py               248     -4.443807  6 H  s          

 Vector   70  Occ=0.000000D+00  E= 4.788484D-01
              MO Center= -1.1D-01,  2.0D-01,  3.0D-01, r^2= 7.7D+00
   Bfn.  Coefficient  Atom+Function         Bfn.  Coefficient  Atom+Function  
  ----- ------------  ---------------      ----- ------------  ---------------
   223     18.492559  5 H  s                248    -18.095399  6 H  s          
    12    -11.258625  1 C  px                87     -9.791901  2 C  dxz        
    32     -7.096536  1 C  dxz              256     -6.125640  6 H  px         
   231     -4.802367  5 H  px               232     -4.153292  5 H  py         
     4     -3.963743  1 C  s                 86      3.116182  2 C  dxy        

 Vector   71  Occ=0.000000D+00  E= 5.126202D-01
              MO Center= -4.3D-02,  2.9D-01,  9.9D-01, r^2= 9.5D+00
   Bfn.  Coefficient  Atom+Function         Bfn.  Coefficient  Atom+Function  
  ----- ------------  ---------------      ----- ------------  ---------------
     4     37.177899  1 C  s                 59    -31.042577  2 C  s          
    69     14.228672  2 C  pz                33     13.694804  1 C  dyy        
   223     12.850133  5 H  s                248     12.895219  6 H  s          
   170    -12.076294  4 O  s                115    -10.470222  3 O  s          
    68     -9.458904  2 C  py                90     -9.326288  2 C  dzz        

 Vector   72  Occ=0.000000D+00  E= 5.281282D-01
              MO Center=  7.2D-02, -5.5D-01,  6.7D-01, r^2= 7.8D+00
   Bfn.  Coefficient  Atom+Function         Bfn.  Coefficient  Atom+Function  
  ----- ------------  ---------------      ----- ------------  ---------------
    59     33.784279  2 C  s                223    -27.860685  5 H  s          
   248    -27.862798  6 H  s                 68     22.730290  2 C  py         
    85     12.907632  2 C  dxx                4      9.360105  1 C  s          
    69      8.401755  2 C  pz                13     -8.240893  1 C  py         
    33      5.591680  1 C  dyy              170     -4.920842  4 O  s          

 Vector   73  Occ=0.000000D+00  E= 5.645508D-01
              MO Center=  5.5D-02, -3.7D-01,  1.2D+00, r^2= 8.4D+00
   Bfn.  Coefficient  Atom+Function         Bfn.  Coefficient  Atom+Function  
  ----- ------------  ---------------      ----- ------------  ---------------
   223    -39.867048  5 H  s                248     39.333749  6 H  s          
    67     37.145413  2 C  px                86     11.243036  2 C  dxy        
    87      7.582463  2 C  dxz              256      6.511311  6 H  px         
   231      5.470334  5 H  px                68      5.430383  2 C  py         
   232      5.124638  5 H  py                64     -4.846882  2 C  px         

 Vector   74  Occ=0.000000D+00  E= 5.685465D-01
              MO Center= -3.5D-02,  1.3D-01,  2.3D-01, r^2= 9.2D+00
   Bfn.  Coefficient  Atom+Function         Bfn.  Coefficient  Atom+Function  
  ----- ------------  ---------------      ----- ------------  ---------------
   248     45.703303  6 H  s                223     45.144815  5 H  s          
    59    -33.201082  2 C  s                 69    -30.738886  2 C  pz         
    14    -27.680340  1 C  pz                 4    -23.686594  1 C  s          
    88    -15.851244  2 C  dyy              275     12.364448  7 F  s          
    68    -10.730617  2 C  py                13    -10.215286  1 C  py         

 Vector   75  Occ=0.000000D+00  E= 5.928051D-01
              MO Center= -1.4D-02, -2.0D-02,  1.1D-01, r^2= 8.9D+00
   Bfn.  Coefficient  Atom+Function         Bfn.  Coefficient  Atom+Function  
  ----- ------------  ---------------      ----- ------------  ---------------
    59     82.638673  2 C  s                  4    -48.058111  1 C  s          
   223    -34.992144  5 H  s                248    -35.019646  6 H  s          
    14    -21.703124  1 C  pz                90     17.388225  2 C  dzz        
    88     15.244504  2 C  dyy               85     14.374505  2 C  dxx        
   275    -12.715577  7 F  s                 69    -10.101448  2 C  pz         

 Vector   76  Occ=0.000000D+00  E= 6.075970D-01
              MO Center= -2.5D-02,  1.1D-01,  5.3D-01, r^2= 8.5D+00
   Bfn.  Coefficient  Atom+Function         Bfn.  Coefficient  Atom+Function  
  ----- ------------  ---------------      ----- ------------  ---------------
   223     19.002447  5 H  s                248    -18.732045  6 H  s          
    67    -16.008461  2 C  px               232     -3.915557  5 H  py         
   256     -3.798906  6 H  px                70     -3.204525  2 C  px         
   231     -2.938876  5 H  px               257      2.926643  6 H  py         
    87     -2.896352  2 C  dxz              224      2.897190  5 H  s          

 Vector   77  Occ=0.000000D+00  E= 6.189385D-01
              MO Center=  2.3D-02, -2.5D-01,  5.2D-01, r^2= 9.4D+00
   Bfn.  Coefficient  Atom+Function         Bfn.  Coefficient  Atom+Function  
  ----- ------------  ---------------      ----- ------------  ---------------
    59     87.751261  2 C  s                223    -34.383228  5 H  s          
   248    -34.449280  6 H  s                  4    -30.270813  1 C  s          
    14    -22.427166  1 C  pz                88     21.431000  2 C  dyy        
    90     21.188735  2 C  dzz               60    -16.450655  2 C  s          
    35    -15.920996  1 C  dzz               85     14.852051  2 C  dxx        

 Vector   78  Occ=0.000000D+00  E= 6.249016D-01
              MO Center= -4.4D-02,  2.0D-01,  9.7D-03, r^2= 7.6D+00
   Bfn.  Coefficient  Atom+Function         Bfn.  Coefficient  Atom+Function  
  ----- ------------  ---------------      ----- ------------  ---------------
    67      3.637356  2 C  px               248      3.224689  6 H  s          
   223     -2.805280  5 H  s                 32      2.507713  1 C  dxz        
    15     -2.071914  1 C  px               125      1.828906  3 O  px         
    86      1.806253  2 C  dxy              105     -1.756593  2 C  fxyz       
   180      1.674513  4 O  px               196      1.654186  4 O  dxy        

 Vector   79  Occ=0.000000D+00  E= 6.503514D-01
              MO Center= -4.6D-02,  1.9D-01, -1.8D-02, r^2= 9.1D+00
   Bfn.  Coefficient  Atom+Function         Bfn.  Coefficient  Atom+Function  
  ----- ------------  ---------------      ----- ------------  ---------------
     4     19.624725  1 C  s                 59    -17.296185  2 C  s          
    69      9.413476  2 C  pz                90     -8.629202  2 C  dzz        
    88     -8.438397  2 C  dyy               60      7.890234  2 C  s          
   169     -7.923573  4 O  s                248      7.296090  6 H  s          
   223      7.193602  5 H  s                115     -7.035353  3 O  s          

 Vector   80  Occ=0.000000D+00  E= 6.596277D-01
              MO Center= -6.4D-02,  2.9D-01, -2.3D-02, r^2= 6.4D+00
   Bfn.  Coefficient  Atom+Function         Bfn.  Coefficient  Atom+Function  
  ----- ------------  ---------------      ----- ------------  ---------------
   223     11.400487  5 H  s                248    -11.404812  6 H  s          
    67     -6.362109  2 C  px               256     -3.805238  6 H  px         
   231     -3.381615  5 H  px                50      3.049121  1 C  fxyz       
   105      2.275371  2 C  fxyz             196     -2.117987  4 O  dxy        
   232     -2.118142  5 H  py               222     -1.871888  5 H  s          

 Vector   81  Occ=0.000000D+00  E= 6.725774D-01
              MO Center=  1.1D-02, -1.2D-02,  1.4D+00, r^2= 7.9D+00
   Bfn.  Coefficient  Atom+Function         Bfn.  Coefficient  Atom+Function  
  ----- ------------  ---------------      ----- ------------  ---------------
     4     16.146923  1 C  s                 69     14.371412  2 C  pz         
   223    -12.903516  5 H  s                248    -12.682588  6 H  s          
    14     12.491973  1 C  pz                59     10.913751  2 C  s          
    89     10.714617  2 C  dyz               60     10.154533  2 C  s          
    34      6.840714  1 C  dyz               13      6.676448  1 C  py         

 Vector   82  Occ=0.000000D+00  E= 6.740719D-01
              MO Center=  3.8D-02, -4.2D-01, -2.3D-01, r^2= 7.1D+00
   Bfn.  Coefficient  Atom+Function         Bfn.  Coefficient  Atom+Function  
  ----- ------------  ---------------      ----- ------------  ---------------
    67      3.465444  2 C  px                32     -2.744154  1 C  dxz        
   197      2.482018  4 O  dxz               49     -1.932981  1 C  fxyy       
    87      1.667336  2 C  dxz               15     -1.558717  1 C  px         
    12     -1.542908  1 C  px               248      1.545812  6 H  s          
   223     -1.537043  5 H  s                231      1.278002  5 H  px         

 Vector   83  Occ=0.000000D+00  E= 6.856835D-01
              MO Center= -9.1D-03,  4.2D-02,  1.1D+00, r^2= 7.1D+00
   Bfn.  Coefficient  Atom+Function         Bfn.  Coefficient  Atom+Function  
  ----- ------------  ---------------      ----- ------------  ---------------
    87      7.275144  2 C  dxz              223     -5.769521  5 H  s          
   248      5.634481  6 H  s                 12      3.883205  1 C  px         
    32      3.426890  1 C  dxz               67      2.674562  2 C  px         
   105     -2.383419  2 C  fxyz             177     -1.697246  4 O  px         
   232      1.653492  5 H  py               256      1.568462  6 H  px         

 Vector   84  Occ=0.000000D+00  E= 6.889742D-01
              MO Center= -6.3D-03, -1.6D-01, -7.3D-01, r^2= 8.8D+00
   Bfn.  Coefficient  Atom+Function         Bfn.  Coefficient  Atom+Function  
  ----- ------------  ---------------      ----- ------------  ---------------
   248     14.629854  6 H  s                223     14.554040  5 H  s          
    59    -10.283033  2 C  s                169     -9.216141  4 O  s          
   170      8.927028  4 O  s                114      8.724033  3 O  s          
   115     -7.487041  3 O  s                 10     -7.416366  1 C  py         
    88     -7.071263  2 C  dyy               54     -6.194152  1 C  fyzz       

 Vector   85  Occ=0.000000D+00  E= 7.160470D-01
              MO Center=  2.6D-03, -1.5D-01, -9.0D-02, r^2= 8.2D+00
   Bfn.  Coefficient  Atom+Function         Bfn.  Coefficient  Atom+Function  
  ----- ------------  ---------------      ----- ------------  ---------------
    59     38.900489  2 C  s                  5     16.417927  1 C  s          
     4    -14.501418  1 C  s                 35    -13.055233  1 C  dzz        
    68     11.066860  2 C  py                60    -10.838369  2 C  s          
   223    -10.022150  5 H  s                248     -9.996172  6 H  s          
    33     -9.828391  1 C  dyy               14     -8.547266  1 C  pz         

 Vector   86  Occ=0.000000D+00  E= 7.218016D-01
              MO Center=  4.2D-02, -3.1D-01,  9.0D-01, r^2= 7.9D+00
   Bfn.  Coefficient  Atom+Function         Bfn.  Coefficient  Atom+Function  
  ----- ------------  ---------------      ----- ------------  ---------------
    59     41.792054  2 C  s                  4    -15.472290  1 C  s          
   223    -14.228780  5 H  s                248    -14.240518  6 H  s          
    14     -6.567360  1 C  pz               115      5.830968  3 O  s          
    90      5.027812  2 C  dzz               34      4.897083  1 C  dyz        
     5     -4.361939  1 C  s                114      3.855701  3 O  s          

 Vector   87  Occ=0.000000D+00  E= 7.427860D-01
              MO Center= -1.7D-02,  8.5D-02,  9.1D-01, r^2= 6.3D+00
   Bfn.  Coefficient  Atom+Function         Bfn.  Coefficient  Atom+Function  
  ----- ------------  ---------------      ----- ------------  ---------------
    87      4.118150  2 C  dxz              122     -3.292539  3 O  px         
    31      3.227514  1 C  dxy               12      2.964814  1 C  px         
   248      2.961029  6 H  s                223     -2.845392  5 H  s          
    86     -1.755898  2 C  dxy              233     -1.385163  5 H  pz         
   258      1.342368  6 H  pz                50     -1.272026  1 C  fxyz       

 Vector   88  Occ=0.000000D+00  E= 7.594949D-01
              MO Center= -2.9D-02,  1.0D-01,  1.4D-01, r^2= 7.6D+00
   Bfn.  Coefficient  Atom+Function         Bfn.  Coefficient  Atom+Function  
  ----- ------------  ---------------      ----- ------------  ---------------
   223     29.194214  5 H  s                248     29.146470  6 H  s          
    59    -23.538468  2 C  s                 85    -12.809303  2 C  dxx        
    88    -12.606716  2 C  dyy               69    -12.277766  2 C  pz         
   115    -11.562304  3 O  s                 34     -9.878508  1 C  dyz        
    60      9.085648  2 C  s                169      8.485101  4 O  s          

 Vector   89  Occ=0.000000D+00  E= 7.663853D-01
              MO Center= -1.1D-02,  1.4D-02,  4.6D-01, r^2= 6.3D+00
   Bfn.  Coefficient  Atom+Function         Bfn.  Coefficient  Atom+Function  
  ----- ------------  ---------------      ----- ------------  ---------------
   248     -7.770643  6 H  s                223      7.513955  5 H  s          
    32     -4.584548  1 C  dxz               87     -4.088703  2 C  dxz        
   177     -3.007993  4 O  px               106      1.919126  2 C  fxzz       
   196     -1.786183  4 O  dxy               49      1.703233  1 C  fxyy       
    86     -1.414441  2 C  dxy              141      1.410204  3 O  dxy        

 Vector   90  Occ=0.000000D+00  E= 7.754538D-01
              MO Center= -1.4D-02,  3.2D-02,  5.8D-01, r^2= 7.0D+00
[...]
   Bfn.  Coefficient  Atom+Function         Bfn.  Coefficient  Atom+Function  
  ----- ------------  ---------------      ----- ------------  ---------------
   114     13.229236  3 O  s                169     -9.505281  4 O  s          
   112      9.289830  3 O  s                167     -5.221565  4 O  s          
   123     -4.748861  3 O  py               139     -3.843537  3 O  dzz        
   120     -3.804416  3 O  py               134     -3.803864  3 O  dxx        
    13     -3.718769  1 C  py               111      3.622703  3 O  s          

 Vector  318  Occ=0.000000D+00  E= 1.834495D+01
              MO Center=  8.9D-02, -8.0D-01, -3.8D-01, r^2= 2.1D+00
   Bfn.  Coefficient  Atom+Function         Bfn.  Coefficient  Atom+Function  
  ----- ------------  ---------------      ----- ------------  ---------------
     4     30.567764  1 C  s                 59    -28.433089  2 C  s          
    13    -15.885177  1 C  py               178    -14.542829  4 O  py         
   223     13.007153  5 H  s                248     12.966325  6 H  s          
   175    -12.400105  4 O  py               179    -11.938704  4 O  pz         
   169    -10.332657  4 O  s                 53     -9.542356  1 C  fyyz       

 Vector  319  Occ=0.000000D+00  E= 1.837938D+01
              MO Center=  2.0D-01, -1.3D+00,  2.2D+00, r^2= 1.2D+00
   Bfn.  Coefficient  Atom+Function         Bfn.  Coefficient  Atom+Function  
  ----- ------------  ---------------      ----- ------------  ---------------
   279     18.452767  7 F  px               306     -8.453347  7 F  fxxx       
   309     -8.459837  7 F  fxyy             311     -8.477248  7 F  fxzz       
   223      7.115358  5 H  s                248     -7.113004  6 H  s          
   316     -5.710475  7 F  fxxx             319     -5.715489  7 F  fxyy       
   321     -5.655560  7 F  fxzz              67     -5.267979  2 C  px         

 Vector  320  Occ=0.000000D+00  E= 1.873223D+01
              MO Center=  2.0D-01, -1.2D+00,  2.1D+00, r^2= 1.4D+00
   Bfn.  Coefficient  Atom+Function         Bfn.  Coefficient  Atom+Function  
  ----- ------------  ---------------      ----- ------------  ---------------
   281     15.170182  7 F  pz                59    -11.518842  2 C  s          
   280     10.717628  7 F  py                68     -7.473927  2 C  py         
   308     -6.980660  7 F  fxxz             313     -6.964339  7 F  fyyz       
   315     -6.950554  7 F  fzzz             223      6.602271  5 H  s          
   248      6.612436  6 H  s                 69     -5.928415  2 C  pz         

 Vector  321  Occ=0.000000D+00  E= 1.886659D+01
              MO Center= -1.0D-01,  5.6D-01, -7.9D-02, r^2= 3.1D+00
   Bfn.  Coefficient  Atom+Function         Bfn.  Coefficient  Atom+Function  
  ----- ------------  ---------------      ----- ------------  ---------------
     4     23.276744  1 C  s                 59     21.993705  2 C  s          
    53    -13.435564  1 C  fyyz              54    -12.579344  1 C  fyzz       
    14    -12.236890  1 C  pz                13     11.633116  1 C  py         
    33     11.179642  1 C  dyy              120     10.995928  3 O  py         
   123     10.015925  3 O  py               112     -8.801834  3 O  s          

 Vector  322  Occ=0.000000D+00  E= 2.106208D+01
              MO Center=  1.9D-01, -1.2D+00,  2.0D+00, r^2= 1.6D+00
   Bfn.  Coefficient  Atom+Function         Bfn.  Coefficient  Atom+Function  
  ----- ------------  ---------------      ----- ------------  ---------------
   280     12.879482  7 F  py               281     -8.891828  7 F  pz         
   272      8.714923  7 F  s                 14     -7.217765  1 C  pz         
    54     -6.887466  1 C  fyzz             283      6.687216  7 F  py         
    68      6.226942  2 C  py               307     -6.069860  7 F  fxxy       
   312     -6.091663  7 F  fyyy             314     -6.079453  7 F  fyzz       

 Vector  323  Occ=0.000000D+00  E= 2.333026D+01
              MO Center=  1.8D-01, -1.1D+00,  2.1D+00, r^2= 8.3D-01
   Bfn.  Coefficient  Atom+Function         Bfn.  Coefficient  Atom+Function  
  ----- ------------  ---------------      ----- ------------  ---------------
   274     17.597614  7 F  s                 59    -12.303192  2 C  s          
    68     -8.151357  2 C  py                14      7.583283  1 C  pz         
   223      7.186033  5 H  s                248      7.192734  6 H  s          
   280     -6.559013  7 F  py               303     -5.837109  7 F  dyy        
   294     -5.497150  7 F  dxx              305     -5.447345  7 F  dzz        

 Vector  324  Occ=0.000000D+00  E= 2.801364D+01
              MO Center= -1.4D-02, -3.2D-02,  1.1D-02, r^2= 1.6D+00
   Bfn.  Coefficient  Atom+Function         Bfn.  Coefficient  Atom+Function  
  ----- ------------  ---------------      ----- ------------  ---------------
     2     30.225742  1 C  s                169    -25.739386  4 O  s          
     1     14.904612  1 C  s                 53    -13.963237  1 C  fyyz       
   178    -11.793270  4 O  py               114    -11.194589  3 O  s          
    27     10.914105  1 C  dyy               33     -9.771557  1 C  dyy        
    54     -8.724263  1 C  fyzz             170      7.596009  4 O  s          

 Vector  325  Occ=0.000000D+00  E= 2.983472D+01
              MO Center= -1.7D-03,  6.2D-02,  1.5D+00, r^2= 1.3D+00
   Bfn.  Coefficient  Atom+Function         Bfn.  Coefficient  Atom+Function  
  ----- ------------  ---------------      ----- ------------  ---------------
    57     31.567264  2 C  s                 56     15.544133  2 C  s          
    59    -10.533490  2 C  s                 65      6.870164  2 C  py         
   222     -6.760543  5 H  s                247     -6.747464  6 H  s          
    33     -6.573356  1 C  dyy               53      5.788170  1 C  fyyz       
    68     -5.493561  2 C  py                 4     -5.268888  1 C  s          


   alpha - beta orbital overlaps 
   ----------------------------- 


   alpha      1      2      3      4      5      6      7      8      9     10
    beta      1      2      3      4      5      6      7      8      9     10
 overlap   1.000  1.000  1.000  1.000  1.000  1.000  1.000  1.000  0.999  0.998


   alpha     11     12     13     14     15     16     17     18     19     20
    beta     11     12     13     14     15     16     17     18     20     19
 overlap   1.000  0.994  0.999  0.992  1.000  0.992  0.999  1.000  0.813  0.816


   alpha     21     22     23     24     25     26     27     28     29     30
    beta     21     22     23     24     25     26     27     29     28     30
 overlap   1.000  0.997  0.997  1.000  0.997  0.986  0.988  0.984  0.986  0.999


   alpha     31     32     33     34     35     36     37     38     39     40
    beta     31     32     33     34     35     36     37     38     39     40
 overlap   0.999  0.998  0.999  0.995  0.978  0.984  1.000  0.995  0.997  0.999


   alpha     41     42     43     44     45     46     47     48     49     50
    beta     41     42     43     44     45     46     47     48     49     50
 overlap   0.989  0.999  0.977  0.989  0.998  0.999  0.998  0.996  1.000  0.998


   alpha     51     52     53     54     55     56     57     58     59     60
    beta     51     53     52     54     55     56     57     58     59     60
 overlap   1.000  0.727  0.730  0.997  0.962  0.997  0.963  0.999  0.996  1.000


   alpha     61     62     63     64     65     66     67     68     69     70
    beta     61     62     63     64     65     66     67     68     70     69
 overlap   0.995  0.981  1.000  0.982  0.998  1.000  0.999  0.999  0.984  0.987


   alpha     71     72     73     74     75     76     77     78     79     80
    beta     71     72     73     74     75     76     77     78     79     80
 overlap   0.999  0.998  1.000  0.992  0.992  0.999  1.000  1.000  0.998  0.997


   alpha     81     82     83     84     85     86     87     88     89     90
    beta     81     82     83     84     85     86     87     88     89     90
 overlap   0.999  0.986  0.985  0.998  0.990  0.991  1.000  0.996  1.000  0.995


   alpha     91     92     93     94     95     96     97     98     99    100
    beta     91     92     93     94     95     96     97     98     99    100
 overlap   0.998  0.999  0.993  0.999  0.994  0.999  1.000  1.000  1.000  0.999


   alpha    101    102    103    104    105    106    107    108    109    110
    beta    101    102    104    103    105    106    107    108    109    110
 overlap   1.000  0.999  0.986  0.987  0.999  1.000  0.999  0.999  1.000  1.000


   alpha    111    112    113    114    115    116    117    118    119    120
    beta    111    112    113    115    114    116    117    118    119    121
 overlap   0.999  1.000  0.999  0.998  0.999  0.999  1.000  0.999  0.997  0.995


   alpha    121    122    123    124    125    126    127    128    129    130
    beta    120    122    123    124    125    126    127    128    129    130
 overlap   0.997  0.998  0.998  0.999  0.999  0.999  0.999  0.999  1.000  1.000


   alpha    131    132    133    134    135    136    137    138    139    140
    beta    131    132    133    134    135    136    137    138    139    140
 overlap   0.999  1.000  0.999  0.998  0.995  0.995  1.000  0.999  0.998  0.995


   alpha    141    142    143    144    145    146    147    148    149    150
    beta    141    142    143    144    145    146    147    148    149    150
 overlap   0.995  1.000  1.000  0.999  0.999  0.997  0.998  0.998  0.998  0.958


   alpha    151    152    153    154    155    156    157    158    159    160
    beta    151    152    153    154    155    156    157    158    160    159
 overlap   0.962  0.986  0.990  0.998  0.993  0.995  0.998  0.995  0.873  0.864


   alpha    161    162    163    164    165    166    167    168    169    170
    beta    161    162    163    164    165    166    167    168    169    170
 overlap   0.993  0.999  0.998  1.000  0.998  0.998  0.996  0.999  0.997  1.000


   alpha    171    172    173    174    175    176    177    178    179    180
    beta    171    172    173    174    175    176    177    178    179    181
 overlap   0.997  0.994  0.995  0.992  0.992  0.999  0.999  0.998  0.999  0.994


   alpha    181    182    183    184    185    186    187    188    189    190
    beta    180    182    184    183    185    186    187    188    189    190
 overlap   0.995  0.998  0.992  0.998  0.999  0.992  0.998  1.000  1.000  0.972


   alpha    191    192    193    194    195    196    197    198    199    200
    beta    191    192    193    194    195    196    197    198    199    200
 overlap   0.972  1.000  0.999  1.000  0.997  0.996  0.999  0.996  0.996  0.999


   alpha    201    202    203    204    205    206    207    208    209    210
    beta    201    202    203    204    205    206    207    208    209    210
 overlap   0.998  0.999  0.997  0.999  1.000  0.998  1.000  0.999  0.999  0.999


   alpha    211    212    213    214    215    216    217    218    219    220
    beta    211    212    213    214    215    216    217    218    219    220
 overlap   1.000  0.998  1.000  0.999  1.000  0.999  1.000  0.999  0.999  0.995


   alpha    221    222    223    224    225    226    227    228    229    230
    beta    221    222    223    224    225    226    227    228    229    230
 overlap   0.999  0.995  0.977  0.978  0.999  1.000  1.000  0.999  0.999  1.000


   alpha    231    232    233    234    235    236    237    238    239    240
    beta    231    232    233    234    235    236    237    238    239    240
 overlap   1.000  0.998  1.000  0.998  0.998  0.998  1.000  1.000  1.000  1.000


   alpha    241    242    243    244    245    246    247    248    249    250
    beta    241    242    243    244    245    246    247    248    249    250
 overlap   1.000  1.000  1.000  1.000  0.998  0.994  0.998  0.998  0.993  1.000


   alpha    251    252    253    254    255    256    257    258    259    260
    beta    251    252    253    254    255    256    257    258    259    260
 overlap   0.993  0.967  0.974  0.999  1.000  0.999  0.999  0.999  0.997  0.997


   alpha    261    262    263    264    265    266    267    268    269    270
    beta    261    263    262    264    265    266    267    268    269    270
 overlap   0.997  0.975  0.976  0.997  0.997  0.993  0.995  0.996  0.949  0.943


   alpha    271    272    273    274    275    276    277    278    279    280
    beta    271    272    273    274    275    276    277    278    279    280
 overlap   0.990  0.993  0.993  1.000  0.989  1.000  0.991  0.995  0.998  0.998


   alpha    281    282    283    284    285    286    287    288    289    290
    beta    281    282    283    284    285    286    287    288    289    290
 overlap   0.990  0.991  0.994  0.991  0.994  0.999  1.000  1.000  1.000  1.000


   alpha    291    292    293    294    295    296    297    298    299    300
    beta    291    292    293    294    295    296    297    298    299    300
 overlap   1.000  1.000  1.000  1.000  1.000  1.000  1.000  1.000  1.000  1.000


   alpha    301    302    303    304    305    306    307    308    309    310
    beta    302    301    303    304    305    306    307    308    309    310
 overlap   0.910  0.910  1.000  1.000  1.000  0.999  0.999  1.000  1.000  1.000


   alpha    311    312    313    314    315    316    317    318    319    320
    beta    311    312    313    314    315    316    317    318    319    320
 overlap   1.000  1.000  1.000  1.000  1.000  1.000  1.000  1.000  1.000  1.000


   alpha    321    322    323    324    325
    beta    321    322    323    324    325
 overlap   1.000  1.000  1.000  1.000  1.000

     --------------------------
     Expectation value of S2:  
     --------------------------
      <S2> =      0.7530 (Exact =     0.7500)


 center of mass
 --------------
 x =   0.06381654 y =  -0.55403527 z =   1.08335891

 moments of inertia (a.u.)
 ------------------
         616.547384395147          34.487872512612         -24.316271315128
          34.487872512612         397.783654400205         121.320335997547
         -24.316271315128         121.320335997547         241.150793777038

     Multipole analysis of the density
     ---------------------------------

     L   x y z        total         alpha         beta         nuclear
     -   - - -        -----         -----         ----         -------
     0   0 0 0     -0.000000    -20.000000    -19.000000     39.000000

     1   1 0 0     -0.059275     -1.093928     -1.114434      2.149087
     1   0 1 0      0.506771      9.893560      9.754008    -19.140797
     1   0 0 1      0.790634    -21.035709    -21.327078     43.153421

     2   2 0 0    -19.357135    -14.128883    -13.715042      8.486790
     2   1 1 0      0.746372      9.583736      9.049263    -17.886626
     2   1 0 1     -0.396491     -7.040906     -6.935040     13.579455
     2   0 2 0    -24.239225    -76.730026    -72.673025    125.163826
     2   0 1 1      2.479339     39.034090     38.854612    -75.409363
     2   0 0 2    -19.780952   -133.229986   -128.964575    242.413608


 Task  times  cpu:       84.2s     wall:       86.4s


                                NWChem Input Module
                                -------------------


 Summary of allocated global arrays
-----------------------------------
  No active global arrays


MA_summarize_allocated_blocks: starting scan ...
heap block 'gridpts', handle 123, address 0x10d64428:
	type of elements:		double precision
	number of elements:		33554432
	address of client space:	0x10d64480
	index for client space:		10703849
	total number of bytes:		268435552
MA_summarize_allocated_blocks: scan completed: 1 heap block, 0 stack blocks
MA usage statistics:

	allocation statistics:
					      heap	     stack
					      ----	     -----
	current number of blocks	         1	         0
	maximum number of blocks	        21	        53
	current total bytes		 268435552	         0
	maximum total bytes		 268980952	  38314408
	maximum total K-bytes		    268981	     38315
	maximum total M-bytes		       269	        39


                                     CITATION
                                     --------
                Please cite the following reference when publishing
                           results obtained with NWChem:

          E. Apra, E. J. Bylaska, W. A. de Jong, N. Govind, K. Kowalski,
       T. P. Straatsma, M. Valiev, H. J. J. van Dam, Y. Alexeev, J. Anchell,
       V. Anisimov, F. W. Aquino, R. Atta-Fynn, J. Autschbach, N. P. Bauman,
     J. C. Becca, D. E. Bernholdt, K. Bhaskaran-Nair, S. Bogatko, P. Borowski,
         J. Boschen, J. Brabec, A. Bruner, E. Cauet, Y. Chen, G. N. Chuev,
      C. J. Cramer, J. Daily, M. J. O. Deegan, T. H. Dunning Jr., M. Dupuis,
   K. G. Dyall, G. I. Fann, S. A. Fischer, A. Fonari, H. Fruchtl, L. Gagliardi,
      J. Garza, N. Gawande, S. Ghosh, K. Glaesemann, A. W. Gotz, J. Hammond,
       V. Helms, E. D. Hermes, K. Hirao, S. Hirata, M. Jacquelin, L. Jensen,
   B. G. Johnson, H. Jonsson, R. A. Kendall, M. Klemm, R. Kobayashi, V. Konkov,
      S. Krishnamoorthy, M. Krishnan, Z. Lin, R. D. Lins, R. J. Littlefield,
      A. J. Logsdail, K. Lopata, W. Ma, A. V. Marenich, J. Martin del Campo,
   D. Mejia-Rodriguez, J. E. Moore, J. M. Mullin, T. Nakajima, D. R. Nascimento,
    J. A. Nichols, P. J. Nichols, J. Nieplocha, A. Otero-de-la-Roza, B. Palmer,
    A. Panyala, T. Pirojsirikul, B. Peng, R. Peverati, J. Pittner, L. Pollack,
   R. M. Richard, P. Sadayappan, G. C. Schatz, W. A. Shelton, D. W. Silverstein,
   D. M. A. Smith, T. A. Soares, D. Song, M. Swart, H. L. Taylor, G. S. Thomas,
            V. Tipparaju, D. G. Truhlar, K. Tsemekhman, T. Van Voorhis,
      A. Vazquez-Mayagoitia, P. Verma, O. Villa, A. Vishnu, K. D. Vogiatzis,
        D. Wang, J. H. Weare, M. J. Williamson, T. L. Windus, K. Wolinski,
        A. T. Wong, Q. Wu, C. Yang, Q. Yu, M. Zacharias, Z. Zhang, Y. Zhao,
                                and R. J. Harrison
                        "NWChem: Past, present, and future
                         J. Chem. Phys. 152, 184102 (2020)
                               doi:10.1063/5.0004997

                                      AUTHORS
                                      -------
  E. Apra, E. J. Bylaska, N. Govind, K. Kowalski, M. Valiev, D. Mejia-Rodriguez,
       A. Kunitsa, N. P. Bauman, A. Panyala, W. A. de Jong, T. P. Straatsma,
   H. J. J. van Dam, D. Wang, T. L. Windus, J. Hammond, J. Autschbach, A. Woods,
    K. Bhaskaran-Nair, J. Brabec, K. Lopata, S. A. Fischer, S. Krishnamoorthy,
     M. Jacquelin, W. Ma, M. Klemm, O. Villa, Y. Chen, V. Anisimov, F. Aquino,
     S. Hirata, M. T. Hackler, E. Hermes, L. Jensen, J. E. Moore, J. C. Becca,
      V. Konjkov, T. Risthaus, M. Malagoli, A. Marenich, A. Otero-de-la-Roza,
        J. Mullin, P. Nichols, R. Peverati, J. Pittner, Y. Zhao, P.-D. Fan,
        A. Fonari, M. J. Williamson, R. J. Harrison, J. R. Rehr, M. Dupuis,
     D. Silverstein, D. M. A. Smith, J. Nieplocha, V. Tipparaju, M. Krishnan,
     B. E. Van Kuiken, A. Vazquez-Mayagoitia, M. Swart, Q. Wu, T. Van Voorhis,
     A. A. Auer, M. Nooijen, L. D. Crosby, E. Brown, G. Cisneros, G. I. Fann,
   H. Fruchtl, J. Garza, K. Hirao, R. A. Kendall, J. A. Nichols, K. Tsemekhman,
    K. Wolinski, J. Anchell, D. E. Bernholdt, P. Borowski, T. Clark, D. Clerc,
   H. Dachsel, M. J. O. Deegan, K. Dyall, D. Elwood, E. Glendening, M. Gutowski,
   A. C. Hess, J. Jaffe, B. G. Johnson, J. Ju, R. Kobayashi, R. Kutteh, Z. Lin,
   R. Littlefield, X. Long, B. Meng, T. Nakajima, S. Niu, L. Pollack, M. Rosing,
   K. Glaesemann, G. Sandrone, M. Stave, H. Taylor, G. Thomas, J. H. van Lenthe,
                               A. T. Wong, Z. Zhang.

 Total times  cpu:       84.3s     wall:       86.6s
