 argument  1 = 0e/mol.nwi
                                         
                                         


             Northwest Computational Chemistry Package (NWChem) 7.2.2
             --------------------------------------------------------


                    Environmental Molecular Sciences Laboratory
                       Pacific Northwest National Laboratory
                                Richland, WA 99352

                              Copyright (c) 1994-2022
                       Pacific Northwest National Laboratory
                            Battelle Memorial Institute

             NWChem is an open-source computational chemistry package
                        distributed under the terms of the
                      Educational Community License (ECL) 2.0
             A copy of the license is included with this distribution
                              in the LICENSE.TXT file

                                  ACKNOWLEDGMENT
                                  --------------

            This software and its documentation were developed at the
            EMSL at Pacific Northwest National Laboratory, a multiprogram
            national laboratory, operated for the U.S. Department of Energy
            by Battelle under Contract Number DE-AC05-76RL01830. Support
            for this work was provided by the Department of Energy Office
            of Biological and Environmental Research, Office of Basic
            Energy Sciences, and the Office of Advanced Scientific Computing.


           Job information
           ---------------

    hostname        = r375.ib.bridges2.psc.edu
    program         = nwchem
    date            = Tue Oct  1 15:55:22 2024

    compiled        = Mon_Mar_18_17:03:37_2024
    source          = /ocean/projects/pscstaff/mmadrid/nwchem-7.2.2
    nwchem branch   = 7.2.2
    nwchem revision = 74936fb9
    ga revision     = 5.8.0
    use scalapack   = F
    input           = 0e/mol.nwi
    prefix          = dft.
    data base       = .//dft.db
    status          = startup
    nproc           =       15
    time left       =     -1s



           Memory information
           ------------------

    heap     =   67108864 doubles =    512.0 Mbytes
    stack    =   67108861 doubles =    512.0 Mbytes
    global   =  134217728 doubles =   1024.0 Mbytes (distinct from heap & stack)
    total    =  268435453 doubles =   2048.0 Mbytes
    verify   = yes
    hardfail = no 


           Directory information
           ---------------------

  0 permanent = ./
  0 scratch   = /jet/home/hmt47/nwchem_scratch/




                                NWChem Input Module
                                -------------------


  library name resolved from: environment
  library file name is: </opt/packages/nwchem/nwchem7.2.2/share/nwchem/libraries/>
  


 Summary of "ao basis" -> "" (cartesian)
 ------------------------------------------------------------------------------
       Tag                 Description            Shells   Functions and Types
 ---------------- ------------------------------  ------  ---------------------
 *                        aug-cc-pVTZ                 on all atoms 


  pbe96 is a nonlocal functional; adding pw91lda local functional. 

 Scaling coordinates for geometry "geometry" by  1.889725989
 (inverse scale =  0.529177249)



                             Geometry "geometry" -> ""
                             -------------------------

 Output coordinates in angstroms (scale by  1.889725989 to convert to a.u.)

  No.       Tag          Charge          X              Y              Z
 ---- ---------------- ---------- -------------- -------------- --------------
    1 P                   15.0000    -0.09620528    -0.09708079    -0.06295237
    2 O                    8.0000     0.42668828     1.24893674    -0.55100443
    3 O                    8.0000     1.22499865    -1.14638422    -0.08168639
    4 O                    8.0000    -0.36036234     0.07687002     1.59443337
    5 O                    8.0000    -1.27143044    -0.84510630    -0.62821705
    6 H                    1.0000     1.98173822    -0.55677400    -0.23735164
    7 H                    1.0000     0.05588392     0.92988155     1.80292252

      Atomic Mass 
      ----------- 

      P                 30.973760
      O                 15.994910
      H                  1.007825


 Effective nuclear repulsion energy (a.u.)     262.5888313694

            Nuclear Dipole moment (a.u.) 
            ----------------------------
        X                 Y               Z
 ---------------- ---------------- ----------------
     1.4242791833   -12.1104495556     6.2162334761


            XYZ format geometry
            -------------------
     7
 geometry
 P                    -0.09620528    -0.09708079    -0.06295237
 O                     0.42668828     1.24893674    -0.55100443
 O                     1.22499865    -1.14638422    -0.08168639
 O                    -0.36036234     0.07687002     1.59443337
 O                    -1.27143044    -0.84510630    -0.62821705
 H                     1.98173822    -0.55677400    -0.23735164
 H                     0.05588392     0.92988155     1.80292252

 ==============================================================================
                                internuclear distances
 ------------------------------------------------------------------------------
       center one      |      center two      | atomic units |  angstroms
 ------------------------------------------------------------------------------
    2 O                |   1 P                |     2.88044  |     1.52426
    3 O                |   1 P                |     3.18853  |     1.68730
    4 O                |   1 P                |     3.18853  |     1.68730
    5 O                |   1 P                |     2.84102  |     1.50340
    6 H                |   3 O                |     1.83656  |     0.97187
    7 H                |   4 O                |     1.83640  |     0.97178
 ------------------------------------------------------------------------------
                         number of included internuclear distances:          6
 ==============================================================================



 ==============================================================================
                                 internuclear angles
 ------------------------------------------------------------------------------
        center 1       |       center 2       |       center 3       |  degrees
 ------------------------------------------------------------------------------
    2 O                |   1 P                |   3 O                |   106.08
    2 O                |   1 P                |   4 O                |   106.09
    2 O                |   1 P                |   5 O                |   125.95
    3 O                |   1 P                |   4 O                |   101.40
    3 O                |   1 P                |   5 O                |   107.37
    4 O                |   1 P                |   5 O                |   107.35
    1 P                |   3 O                |   6 H                |   103.54
    1 P                |   4 O                |   7 H                |   103.54
 ------------------------------------------------------------------------------
                            number of included internuclear angles:          8
 ==============================================================================




                                 NWChem DFT Module
                                 -----------------


                      Basis "ao basis" -> "ao basis" (cartesian)
                      -----
  P (Phosphorous)
  ---------------
            Exponent  Coefficients 
       -------------- ---------------------------------------------------------
  1 S  3.12400000E+05  0.000058
  1 S  4.68000000E+04  0.000448
  1 S  1.06500000E+04  0.002349
  1 S  3.01800000E+03  0.009783
  1 S  9.86800000E+02  0.034147
  1 S  3.57400000E+02  0.100204
  1 S  1.39600000E+02  0.234372
  1 S  5.76300000E+01  0.382434
  1 S  2.46000000E+01  0.318088
  1 S  1.01200000E+01  0.070779
  1 S  4.28300000E+00 -0.001818
  1 S  1.80500000E+00  0.002162
  1 S  2.78200000E-01  0.000432

  2 S  3.12400000E+05 -0.000016
  2 S  4.68000000E+04 -0.000122
  2 S  1.06500000E+04 -0.000640
  2 S  3.01800000E+03 -0.002674
  2 S  9.86800000E+02 -0.009498
  2 S  3.57400000E+02 -0.028935
  2 S  1.39600000E+02 -0.074512
  2 S  5.76300000E+01 -0.149938
  2 S  2.46000000E+01 -0.189467
  2 S  1.01200000E+01  0.036327
  2 S  4.28300000E+00  0.528816
  2 S  1.80500000E+00  0.519115
  2 S  2.78200000E-01 -0.009257

  3 S  3.12400000E+05  0.000004
  3 S  4.68000000E+04  0.000033
  3 S  1.06500000E+04  0.000176
  3 S  3.01800000E+03  0.000734
  3 S  9.86800000E+02  0.002618
  3 S  3.57400000E+02  0.007979
  3 S  1.39600000E+02  0.020794
  3 S  5.76300000E+01  0.042445
  3 S  2.46000000E+01  0.056344
  3 S  1.01200000E+01 -0.012736
  3 S  4.28300000E+00 -0.196495
  3 S  1.80500000E+00 -0.353555
  3 S  2.78200000E-01  0.700912

  4 S  6.15800000E-01  1.000000

  5 S  1.05500000E-01  1.000000

  6 S  4.09000000E-02  1.000000

  7 P  5.04900000E+02  0.002337
  7 P  1.19400000E+02  0.018541
  7 P  3.79600000E+01  0.084969
  7 P  1.39500000E+01  0.244615
  7 P  5.45700000E+00  0.422766
  7 P  2.17700000E+00  0.368439
  7 P  2.87700000E-01 -0.003790

  8 P  5.04900000E+02 -0.000555
  8 P  1.19400000E+02 -0.004459
  8 P  3.79600000E+01 -0.020635
  8 P  1.39500000E+01 -0.061769
  8 P  5.45700000E+00 -0.108924
  8 P  2.17700000E+00 -0.105599
  8 P  2.87700000E-01  0.576981

  9 P  8.01000000E-01  1.000000

 10 P  9.71400000E-02  1.000000

 11 P  3.07000000E-02  1.000000

 12 D  2.16000000E-01  1.000000

 13 D  6.52000000E-01  1.000000

 14 D  7.75000000E-02  1.000000

 15 F  4.52000000E-01  1.000000

 16 F  1.65000000E-01  1.000000

  O (Oxygen)
  ----------
            Exponent  Coefficients 
       -------------- ---------------------------------------------------------
  1 S  1.53300000E+04  0.000508
  1 S  2.29900000E+03  0.003929
  1 S  5.22400000E+02  0.020243
  1 S  1.47300000E+02  0.079181
  1 S  4.75500000E+01  0.230687
  1 S  1.67600000E+01  0.433118
  1 S  6.20700000E+00  0.350260
  1 S  6.88200000E-01 -0.008154

  2 S  1.53300000E+04 -0.000115
  2 S  2.29900000E+03 -0.000895
  2 S  5.22400000E+02 -0.004636
  2 S  1.47300000E+02 -0.018724
  2 S  4.75500000E+01 -0.058463
  2 S  1.67600000E+01 -0.136463
  2 S  6.20700000E+00 -0.175740
  2 S  6.88200000E-01  0.603418

  3 S  1.75200000E+00  1.000000

  4 S  2.38400000E-01  1.000000

  5 S  7.37600000E-02  1.000000

  6 P  3.44600000E+01  0.015928
  6 P  7.74900000E+00  0.099740
  6 P  2.28000000E+00  0.310492

  7 P  7.15600000E-01  1.000000

  8 P  2.14000000E-01  1.000000

  9 P  5.97400000E-02  1.000000

 10 D  2.31400000E+00  1.000000

 11 D  6.45000000E-01  1.000000

 12 D  2.14000000E-01  1.000000

 13 F  1.42800000E+00  1.000000

 14 F  5.00000000E-01  1.000000

  H (Hydrogen)
  ------------
            Exponent  Coefficients 
       -------------- ---------------------------------------------------------
  1 S  3.38700000E+01  0.006068
  1 S  5.09500000E+00  0.045308
  1 S  1.15900000E+00  0.202822

  2 S  3.25800000E-01  1.000000

  3 S  1.02700000E-01  1.000000

  4 S  2.52600000E-02  1.000000

  5 P  1.40700000E+00  1.000000

  6 P  3.88000000E-01  1.000000

  7 P  1.02000000E-01  1.000000

  8 D  1.05700000E+00  1.000000

  9 D  2.47000000E-01  1.000000



 Summary of "ao basis" -> "ao basis" (cartesian)
 ------------------------------------------------------------------------------
       Tag                 Description            Shells   Functions and Types
 ---------------- ------------------------------  ------  ---------------------
 P                        aug-cc-pVTZ               16       59   6s5p3d2f
 O                        aug-cc-pVTZ               14       55   5s4p3d2f
 H                        aug-cc-pVTZ                9       25   4s3p2d




 Summary of "ao basis" -> "ao basis" (cartesian)
 ------------------------------------------------------------------------------
       Tag                 Description            Shells   Functions and Types
 ---------------- ------------------------------  ------  ---------------------
 P                        aug-cc-pVTZ               16       59   6s5p3d2f
 O                        aug-cc-pVTZ               14       55   5s4p3d2f
 H                        aug-cc-pVTZ                9       25   4s3p2d


  Caching 1-el integrals 

            General Information
            -------------------
          SCF calculation type: DFT
          Wavefunction type:  spin polarized.
          No. of atoms     :     7
          No. of electrons :    49
           Alpha electrons :    25
            Beta electrons :    24
          Charge           :     0
          Spin multiplicity:     2
          Use of symmetry is: off; symmetry adaption is: off
          Maximum number of iterations: 200
          AO basis - number of functions:   329
                     number of shells:    90
          Convergence on energy requested:  1.00D-06
          Convergence on density requested:  1.00D-05
          Convergence on gradient requested:  5.00D-04

              XC Information
              --------------
          PerdewBurkeErnzerhof Exchange Functional  1.000          
            Perdew 1991 LDA Correlation Functional  1.000 local    
           PerdewBurkeErnz. Correlation Functional  1.000 non-local

             Grid Information
             ----------------
          Grid used for XC integration:  medium    
          Radial quadrature: Mura-Knowles        
          Angular quadrature: Lebedev. 
          Tag              B.-S. Rad. Rad. Pts. Rad. Cut. Ang. Pts.
          ---              ---------- --------- --------- ---------
          P                   1.00       88          13.0       590
          O                   0.60       49          14.0       434
          H                   0.35       45          14.0       434
          Grid pruning is: on 
          Number of quadrature shells:   374
          Spatial weights used:  Erf1

          Convergence Information
          -----------------------
          Convergence aids based upon iterative change in 
          total energy or number of iterations. 
          Levelshifting, if invoked, occurs when the 
          HOMO/LUMO gap drops below (HL_TOL):  1.00D-02
          DIIS, if invoked, will attempt to extrapolate 
          using up to (NFOCK): 10 stored Fock matrices.

                    Damping(40%)  Levelshifting(0.0)       DIIS
                  --------------- ------------------- ---------------
          dE  on:    start            0.00D+00            start   
          dE off:  200 iters          0.00D+00          200 iters 


      Screening Tolerance Information
      -------------------------------
          Density screening/tol_rho:  1.00D-10
          AO Gaussian exp screening on grid/accAOfunc:  14
          CD Gaussian exp screening on grid/accCDfunc:  20
          XC Gaussian exp screening on grid/accXCfunc:  20
          Schwarz screening/accCoul:  1.00D-08


 Forcing the number of linearly dependent vectors to be  0

      Superposition of Atomic Density Guess
      -------------------------------------

 Sum of atomic energies:        -640.78250551
   Time after variat. SCF:      0.5
   Time prior to 1st pass:      0.5

 Grid_pts file          = /jet/home/hmt47/nwchem_scratch//dft.gridpts.00
 Record size in doubles =  12289        No. of grid_pts per rec  =   3070
 Max. records in memory =      7        Max. recs in file   =  67550051


           Memory utilization after 1st SCF pass: 
           Heap Space remaining (MW):       33.46            33460008
          Stack Space remaining (MW):       67.11            67106060

   convergence    iter        energy       DeltaE   RMS-Dens  Diis-err    time
 ---------------- ----- ----------------- --------- --------- ---------  ------
 d=40,ls=0.0,diis     1   -643.9392538643 -9.07D+02  5.20D-03  1.31D+01     1.8
                                                     5.10D-03  1.21D+01
 d=40,ls=0.0,diis     2   -643.4093035851  5.30D-01  4.53D-03  2.24D+00     7.3
                                                     4.46D-03  2.07D+00
 d=40,ls=0.0,diis     3   -642.6189647485  7.90D-01  1.82D-03  1.45D+00    12.7
                                                     2.21D-03  1.26D+00
 d=40,ls=0.0,diis     4   -643.0380080484 -4.19D-01  6.89D-04  2.50D-01    18.1
                                                     1.64D-03  2.25D-01
 d=40,ls=0.0,diis     5   -643.1017017420 -6.37D-02  3.85D-04  1.11D-01    24.2
                                                     8.34D-04  8.58D-02
  Resetting Diis
 d=40,ls=0.0,diis     6   -643.1098108249 -8.11D-03  1.98D-04  1.13D-01    29.7
                                                     5.09D-04  8.58D-02
 d=40,ls=0.0,diis     7   -643.1309383835 -2.11D-02  1.19D-03  8.17D-02    35.1
                                                     2.19D-03  6.14D-02
 d=40,ls=0.0,diis     8   -642.9809686546  1.50D-01  4.63D-04  3.85D-01    40.6
                                                     1.37D-03  3.36D-01
 d=40,ls=0.0,diis     9   -643.1342341339 -1.53D-01  1.88D-04  4.35D-02    46.0
                                                     1.67D-03  4.08D-02
 d=40,ls=0.0,diis    10   -643.1325441241  1.69D-03  1.15D-04  6.29D-02    51.4
                                                     1.42D-03  5.01D-02
 d=40,ls=0.0,diis    11   -643.1651683434 -3.26D-02  2.87D-05  8.14D-04    56.9
                                                     1.51D-03  8.02D-04
 d=40,ls=0.0,diis    12   -643.1462627427  1.89D-02  1.90D-05  4.22D-02    62.3
                                                     1.33D-03  3.24D-02
 d=40,ls=0.0,diis    13   -643.1669866335 -2.07D-02  9.62D-06  3.08D-03    68.0
                                                     5.94D-04  2.23D-03
 d=40,ls=0.0,diis    14   -643.1684865570 -1.50D-03  8.30D-06  1.12D-03    73.4
                                                     1.24D-03  4.86D-04
 d=40,ls=0.0,diis    15   -643.1616501509  6.84D-03  1.05D-05  1.53D-02    78.9
                                                     1.19D-03  1.19D-02
 d=40,ls=0.0,diis    16   -643.1688414151 -7.19D-03  1.56D-05  5.12D-04    85.1
                                                     4.18D-04  1.67D-04
 d=40,ls=0.0,diis    17   -643.1668799920  1.96D-03  6.42D-06  4.67D-03    90.8
                                                     1.75D-04  3.39D-03
 d=40,ls=0.0,diis    18   -643.1653539217  1.53D-03  4.78D-06  7.82D-03    96.3
                                                     8.62D-05  5.91D-03
 d=40,ls=0.0,diis    19   -643.1646420421  7.12D-04  3.77D-06  9.23D-03   101.9
                                                     2.60D-05  7.07D-03
 d=40,ls=0.0,diis    20   -643.1643494379  2.93D-04  1.06D-05  9.88D-03   107.4
                                                     4.25D-05  7.61D-03
 d=40,ls=0.0,diis    21   -643.1641527105  1.97D-04  1.49D-05  1.04D-02   112.8
                                                     7.60D-05  8.05D-03
 d=40,ls=0.0,diis    22   -643.1640956474  5.71D-05  2.34D-05  1.07D-02   118.3
                                                     8.72D-05  8.31D-03
 d=40,ls=0.0,diis    23   -643.1642318991 -1.36D-04  3.86D-05  1.01D-02   124.1
                                                     1.14D-04  7.87D-03
 d=40,ls=0.0,diis    24   -643.1636717420  5.60D-04  4.57D-05  1.16D-02   129.6
                                                     1.84D-04  9.18D-03
 d=40,ls=0.0,diis    25   -643.1638915779 -2.20D-04  9.67D-06  1.16D-02   135.0
                                                     1.68D-04  9.12D-03
 d=40,ls=0.0,diis    26   -643.1652688934 -1.38D-03  5.90D-05  8.84D-03   140.5
                                                     1.76D-03  6.84D-03
 d=40,ls=0.0,diis    27   -643.1584806459  6.79D-03  3.26D-05  2.05D-02   146.1
                                                     1.05D-03  1.59D-02
 d=40,ls=0.0,diis    28   -643.1690148932 -1.05D-02  3.25D-05  1.67D-04   151.5
                                                     3.68D-04  3.85D-05
 d=40,ls=0.0,diis    29   -643.1682479161  7.67D-04  2.06D-05  2.32D-03   157.3
                                                     1.36D-04  1.73D-03
 d=40,ls=0.0,diis    30   -643.1674869051  7.61D-04  1.43D-05  4.17D-03   165.5
                                                     1.53D-04  3.26D-03
 d=40,ls=0.0,diis    31   -643.1681490526 -6.62D-04  3.51D-05  2.89D-03   173.1
                                                     3.63D-04  2.26D-03
 d=40,ls=0.0,diis    32   -643.1654299779  2.72D-03  4.83D-06  8.66D-03   178.6
                                                     7.11D-05  6.78D-03
 d=40,ls=0.0,diis    33   -643.1647619339  6.68D-04  2.03D-05  1.01D-02   184.1
                                                     1.72D-04  7.94D-03
 d=40,ls=0.0,diis    34   -643.1662681579 -1.51D-03  1.69D-05  6.83D-03   189.6
                                                     1.45D-04  5.43D-03
 d=40,ls=0.0,diis    35   -643.1653967504  8.71D-04  3.06D-06  8.58D-03   195.0
                                                     2.66D-05  6.79D-03
 d=40,ls=0.0,diis    36   -643.1655473875 -1.51D-04  4.28D-05  8.29D-03   200.5
                                                     4.17D-04  6.56D-03
 d=40,ls=0.0,diis    37   -643.1634809329  2.07D-03  1.99D-05  1.23D-02   205.9
                                                     1.32D-04  9.56D-03
 d=40,ls=0.0,diis    38   -643.1645183447 -1.04D-03  4.24D-05  1.00D-02   211.5
                                                     2.08D-04  7.85D-03
 d=40,ls=0.0,diis    39   -643.1651523980 -6.34D-04  7.59D-05  8.92D-03   217.1
                                                     5.69D-04  7.09D-03
 d=40,ls=0.0,diis    40   -643.1684290882 -3.28D-03  1.75D-05  2.13D-03   222.8
                                                     2.72D-04  1.75D-03
 d=40,ls=0.0,diis    41   -643.1693939251 -9.65D-04  1.44D-05  2.76D-04   228.2
                                                     1.12D-04  2.11D-04
 d=40,ls=0.0,diis    42   -643.1695530922 -1.59D-04  8.50D-06  2.79D-05   233.7
                                                     1.99D-05  1.79D-05
 d=40,ls=0.0,diis    43   -643.1695561095 -3.02D-06  4.42D-06  6.19D-05   239.1
                                                     3.18D-05  5.05D-05
 d=40,ls=0.0,diis    44   -643.1695861745 -3.01D-05  2.85D-06  1.56D-05   245.3
                                                     1.95D-05  1.27D-05
 d=40,ls=0.0,diis    45   -643.1695961054 -9.93D-06  9.49D-07  1.92D-06   250.7
                                                     7.27D-06  1.61D-06
 d=40,ls=0.0,diis    46   -643.1695985249 -2.42D-06  2.37D-07  1.25D-07   256.2
                                                     1.02D-06  1.07D-07
 d=40,ls=0.0,diis    47   -643.1695992233 -6.98D-07  1.26D-07  3.86D-08   261.6
                                                     4.46D-07  3.27D-08


         Total DFT energy =     -643.169599223251
      One electron energy =    -1409.002837947611
           Coulomb energy =      561.150706719872
    Exchange-Corr. energy =      -57.906299364962
 Nuclear repulsion energy =      262.588831369450

 Numeric. integr. density =       48.999994702077

     Total iterative time =    261.3s



                    DFT Final Alpha Molecular Orbital Analysis
                    ------------------------------------------

 Vector    1  Occ=1.000000D+00  E=-7.646615D+01
              MO Center= -9.6D-02, -9.7D-02, -6.3D-02, r^2= 4.1D-03
   Bfn.  Coefficient  Atom+Function         Bfn.  Coefficient  Atom+Function  
  ----- ------------  ---------------      ----- ------------  ---------------
     1      1.005129  1 P  s                  3      0.046345  1 P  s          
     2      0.034336  1 P  s          

 Vector    2  Occ=1.000000D+00  E=-1.882977D+01
              MO Center=  1.2D+00, -1.1D+00, -8.2D-02, r^2= 1.5D-02
   Bfn.  Coefficient  Atom+Function         Bfn.  Coefficient  Atom+Function  
  ----- ------------  ---------------      ----- ------------  ---------------
   115      0.981824  3 O  s                117      0.064408  3 O  s          
     5     -0.059843  1 P  s                119     -0.038862  3 O  s          
    16      0.033774  1 P  px               228      0.033240  5 O  s          
   118     -0.032576  3 O  s                 63      0.031820  2 O  s          
    64     -0.030513  2 O  s                144      0.030360  3 O  dxx        

 Vector    3  Occ=1.000000D+00  E=-1.882272D+01
              MO Center= -3.6D-01,  7.7D-02,  1.6D+00, r^2= 1.5D-02
   Bfn.  Coefficient  Atom+Function         Bfn.  Coefficient  Atom+Function  
  ----- ------------  ---------------      ----- ------------  ---------------
   170      0.981846  4 O  s                172      0.064371  4 O  s          
     5     -0.059761  1 P  s                174     -0.038909  4 O  s          
   183     -0.033301  4 O  pz               228      0.033253  5 O  s          
   173     -0.032712  4 O  s                204      0.032135  4 O  dzz        
    63      0.031709  2 O  s                 64     -0.030305  2 O  s          

 Vector    4  Occ=1.000000D+00  E=-1.880986D+01
              MO Center= -1.3D+00, -8.4D-01, -6.3D-01, r^2= 1.5D-02
   Bfn.  Coefficient  Atom+Function         Bfn.  Coefficient  Atom+Function  
  ----- ------------  ---------------      ----- ------------  ---------------
   225      0.978316  5 O  s                227      0.064093  5 O  s          
   228     -0.055649  5 O  s                229     -0.047883  5 O  s          
    64     -0.025272  2 O  s          

 Vector    5  Occ=1.000000D+00  E=-1.880918D+01
              MO Center=  4.3D-01,  1.2D+00, -5.5D-01, r^2= 1.5D-02
   Bfn.  Coefficient  Atom+Function         Bfn.  Coefficient  Atom+Function  
  ----- ------------  ---------------      ----- ------------  ---------------
    60      0.979140  2 O  s                 62      0.065318  2 O  s          
    63     -0.048889  2 O  s                 64     -0.038315  2 O  s          
    17     -0.036960  1 P  py               119     -0.035416  3 O  s          
   174     -0.035308  4 O  s                229     -0.031506  5 O  s          
     5     -0.030391  1 P  s                 92      0.029338  2 O  dyy        

 Vector    6  Occ=1.000000D+00  E=-6.451523D+00
              MO Center= -9.6D-02, -9.8D-02, -6.2D-02, r^2= 9.1D-02
   Bfn.  Coefficient  Atom+Function         Bfn.  Coefficient  Atom+Function  
  ----- ------------  ---------------      ----- ------------  ---------------
     2      0.899342  1 P  s                  4      0.104378  1 P  s          
     3     -0.056565  1 P  s          

 Vector    7  Occ=1.000000D+00  E=-4.669091D+00
              MO Center= -9.6D-02, -9.7D-02, -6.3D-02, r^2= 8.3D-02
   Bfn.  Coefficient  Atom+Function         Bfn.  Coefficient  Atom+Function  
  ----- ------------  ---------------      ----- ------------  ---------------
     7      0.776186  1 P  px                 8     -0.681133  1 P  py         
     9     -0.249519  1 P  pz                10      0.176510  1 P  px         
    11     -0.155320  1 P  py                45     -0.075172  1 P  fxzz       
    40     -0.074604  1 P  fxxx              43     -0.074315  1 P  fxyy       
    48      0.066021  1 P  fyzz              46      0.065292  1 P  fyyy       

 Vector    8  Occ=1.000000D+00  E=-4.668718D+00
              MO Center= -9.6D-02, -9.7D-02, -6.4D-02, r^2= 8.3D-02
   Bfn.  Coefficient  Atom+Function         Bfn.  Coefficient  Atom+Function  
  ----- ------------  ---------------      ----- ------------  ---------------
     9      1.021414  1 P  pz                 8     -0.284869  1 P  py         
    12      0.233900  1 P  pz                42     -0.099252  1 P  fxxz       
    47     -0.098851  1 P  fyyz              49     -0.098859  1 P  fzzz       
     7      0.079713  1 P  px                11     -0.067208  1 P  py         
   183      0.039045  4 O  pz                 5      0.037764  1 P  s          

 Vector    9  Occ=1.000000D+00  E=-4.666151D+00
              MO Center= -9.6D-02, -9.7D-02, -6.3D-02, r^2= 8.3D-02
   Bfn.  Coefficient  Atom+Function         Bfn.  Coefficient  Atom+Function  
  ----- ------------  ---------------      ----- ------------  ---------------
     8      0.774652  1 P  py                 7      0.730233  1 P  px         
    11      0.197881  1 P  py                10      0.185850  1 P  px         
     9      0.157626  1 P  pz                48     -0.080335  1 P  fyzz       
    46     -0.079197  1 P  fyyy              41     -0.077627  1 P  fxxy       
    45     -0.076376  1 P  fxzz              40     -0.075633  1 P  fxxx       

 Vector   10  Occ=1.000000D+00  E=-1.030657D+00
              MO Center=  2.0D-01, -1.9D-01,  1.6D-01, r^2= 2.2D+00
   Bfn.  Coefficient  Atom+Function         Bfn.  Coefficient  Atom+Function  
  ----- ------------  ---------------      ----- ------------  ---------------
     3      0.259781  1 P  s                116      0.250700  3 O  s          
   171      0.222666  4 O  s                 61      0.185579  2 O  s          
   226      0.174572  5 O  s                118      0.140840  3 O  s          
   173      0.124817  4 O  s                 63      0.102805  2 O  s          
   228      0.087733  5 O  s                117      0.073857  3 O  s          

 Vector   11  Occ=1.000000D+00  E=-9.735316D-01
              MO Center=  5.3D-01, -3.9D-01,  6.4D-01, r^2= 2.1D+00
   Bfn.  Coefficient  Atom+Function         Bfn.  Coefficient  Atom+Function  
  ----- ------------  ---------------      ----- ------------  ---------------
   116      0.348417  3 O  s                171     -0.327059  4 O  s          
   118      0.192989  3 O  s                173     -0.186423  4 O  s          
   117      0.097146  3 O  s                172     -0.091676  4 O  s          
    16     -0.074599  1 P  px               280      0.074511  6 H  s          
   305     -0.069903  7 H  s                281      0.068772  6 H  s          

 Vector   12  Occ=1.000000D+00  E=-9.521632D-01
              MO Center= -4.8D-01, -4.1D-01, -6.5D-03, r^2= 2.2D+00
   Bfn.  Coefficient  Atom+Function         Bfn.  Coefficient  Atom+Function  
  ----- ------------  ---------------      ----- ------------  ---------------
   226      0.365294  5 O  s                171     -0.234416  4 O  s          
   228      0.230646  5 O  s                116     -0.176728  3 O  s          
    61      0.122100  2 O  s                  3      0.111941  1 P  s          
     5     -0.110956  1 P  s                173     -0.106157  4 O  s          
   227      0.102600  5 O  s                 12     -0.096686  1 P  pz         

 Vector   13  Occ=1.000000D+00  E=-9.388540D-01
              MO Center=  2.7D-02,  5.5D-01, -4.0D-01, r^2= 1.7D+00
   Bfn.  Coefficient  Atom+Function         Bfn.  Coefficient  Atom+Function  
  ----- ------------  ---------------      ----- ------------  ---------------
    61      0.415574  2 O  s                 63      0.248830  2 O  s          
   226     -0.233726  5 O  s                228     -0.150545  5 O  s          
    11      0.134963  1 P  py                17     -0.123286  1 P  py         
    62      0.116978  2 O  s                 64      0.105969  2 O  s          
   171     -0.096427  4 O  s                116     -0.080589  3 O  s          

 Vector   14  Occ=1.000000D+00  E=-5.813698D-01
              MO Center=  2.8D-01, -3.5D-01,  3.8D-01, r^2= 2.6D+00
   Bfn.  Coefficient  Atom+Function         Bfn.  Coefficient  Atom+Function  
  ----- ------------  ---------------      ----- ------------  ---------------
     3      0.330855  1 P  s                  5      0.219689  1 P  s          
   120     -0.182269  3 O  px               123     -0.174995  3 O  px         
   226     -0.153177  5 O  s                228     -0.145793  5 O  s          
   177     -0.128250  4 O  pz               180     -0.126595  4 O  pz         
    63     -0.113003  2 O  s                176     -0.110484  4 O  py         

 Vector   15  Occ=1.000000D+00  E=-5.111500D-01
              MO Center=  3.5D-01, -3.8D-01,  5.8D-01, r^2= 2.5D+00
   Bfn.  Coefficient  Atom+Function         Bfn.  Coefficient  Atom+Function  
  ----- ------------  ---------------      ----- ------------  ---------------
   120      0.214910  3 O  px               123      0.207332  3 O  px         
   177     -0.153792  4 O  pz               180     -0.152383  4 O  pz         
   281      0.139221  6 H  s                306     -0.139317  7 H  s          
   176     -0.137487  4 O  py                12      0.131353  1 P  pz         
   179     -0.127531  4 O  py                10     -0.123892  1 P  px         

 Vector   16  Occ=1.000000D+00  E=-4.736314D-01
              MO Center=  1.6D-01,  2.1D-01,  2.2D-02, r^2= 3.0D+00
   Bfn.  Coefficient  Atom+Function         Bfn.  Coefficient  Atom+Function  
  ----- ------------  ---------------      ----- ------------  ---------------
     3      0.240116  1 P  s                 61     -0.190281  2 O  s          
    63     -0.169876  2 O  s                174     -0.169741  4 O  s          
    66     -0.160788  2 O  py               119     -0.159552  3 O  s          
    69     -0.152840  2 O  py               176      0.137437  4 O  py         
    64     -0.135811  2 O  s                179      0.131770  4 O  py         

 Vector   17  Occ=1.000000D+00  E=-4.374153D-01
              MO Center= -2.0D-01, -2.8D-01, -1.1D-01, r^2= 2.9D+00
   Bfn.  Coefficient  Atom+Function         Bfn.  Coefficient  Atom+Function  
  ----- ------------  ---------------      ----- ------------  ---------------
   228      0.179051  5 O  s                 10      0.150870  1 P  px         
   118     -0.142191  3 O  s                226      0.142874  5 O  s          
   231     -0.141275  5 O  py               234     -0.141568  5 O  py         
    12      0.132303  1 P  pz               173     -0.128705  4 O  s          
   121      0.127684  3 O  py               124      0.125636  3 O  py         

 Vector   18  Occ=1.000000D+00  E=-4.229318D-01
              MO Center=  3.3D-01, -1.7D-01,  4.3D-01, r^2= 2.8D+00
   Bfn.  Coefficient  Atom+Function         Bfn.  Coefficient  Atom+Function  
  ----- ------------  ---------------      ----- ------------  ---------------
   118      0.188206  3 O  s                173     -0.188995  4 O  s          
   121     -0.176230  3 O  py               124     -0.173076  3 O  py         
   176      0.144697  4 O  py               179      0.139263  4 O  py         
   171     -0.132915  4 O  s                116      0.130675  3 O  s          
   180     -0.123254  4 O  pz               177     -0.120309  4 O  pz         

 Vector   19  Occ=1.000000D+00  E=-3.942325D-01
              MO Center= -2.7D-01,  4.3D-02, -3.6D-01, r^2= 3.1D+00
   Bfn.  Coefficient  Atom+Function         Bfn.  Coefficient  Atom+Function  
  ----- ------------  ---------------      ----- ------------  ---------------
   230     -0.185183  5 O  px                66     -0.181321  2 O  py         
    11      0.176609  1 P  py                63     -0.177043  2 O  s          
    69     -0.174693  2 O  py               233     -0.174914  5 O  px         
   228      0.135503  5 O  s                 65     -0.132461  2 O  px         
    68     -0.131295  2 O  px               232     -0.126468  5 O  pz         

 Vector   20  Occ=1.000000D+00  E=-3.645171D-01
              MO Center=  1.9D-01, -6.2D-01,  1.0D-01, r^2= 2.7D+00
   Bfn.  Coefficient  Atom+Function         Bfn.  Coefficient  Atom+Function  
  ----- ------------  ---------------      ----- ------------  ---------------
   125      0.246520  3 O  pz               122      0.242967  3 O  pz         
   234      0.186455  5 O  py               231      0.184136  5 O  py         
   128      0.149321  3 O  pz               178      0.139720  4 O  px         
   175      0.137151  4 O  px               237      0.116359  5 O  py         
    24      0.109290  1 P  dxz               30      0.102120  1 P  dxz        

 Vector   21  Occ=1.000000D+00  E=-3.504846D-01
              MO Center= -2.2D-01, -3.9D-01, -2.0D-03, r^2= 3.0D+00
   Bfn.  Coefficient  Atom+Function         Bfn.  Coefficient  Atom+Function  
  ----- ------------  ---------------      ----- ------------  ---------------
   230      0.178198  5 O  px               233      0.168755  5 O  px         
   234     -0.162264  5 O  py               231     -0.151111  5 O  py         
    29      0.148166  1 P  dxy               23      0.140139  1 P  dxy        
   236      0.133253  5 O  px               121     -0.123389  3 O  py         
   124     -0.121885  3 O  py               175      0.119136  4 O  px         

 Vector   22  Occ=1.000000D+00  E=-3.416263D-01
              MO Center= -3.1D-01,  8.4D-02,  2.3D-01, r^2= 3.0D+00
   Bfn.  Coefficient  Atom+Function         Bfn.  Coefficient  Atom+Function  
  ----- ------------  ---------------      ----- ------------  ---------------
    67      0.186117  2 O  pz                70      0.185861  2 O  pz         
   175     -0.167696  4 O  px               177      0.167610  4 O  pz         
   178     -0.166700  4 O  px               232      0.166869  5 O  pz         
   235      0.165067  5 O  pz               180      0.164198  4 O  pz         
    73      0.124196  2 O  pz               173      0.118034  4 O  s          

 Vector   23  Occ=1.000000D+00  E=-3.302686D-01
              MO Center= -1.1D-01, -5.0D-02, -2.9D-01, r^2= 2.9D+00
   Bfn.  Coefficient  Atom+Function         Bfn.  Coefficient  Atom+Function  
  ----- ------------  ---------------      ----- ------------  ---------------
    68      0.180076  2 O  px                65      0.177545  2 O  px         
   234      0.171199  5 O  py               231      0.169442  5 O  py         
    70      0.166538  2 O  pz               235     -0.164614  5 O  pz         
    67      0.163185  2 O  pz               232     -0.162759  5 O  pz         
    73      0.135155  2 O  pz               237      0.119540  5 O  py         

 Vector   24  Occ=1.000000D+00  E=-3.154325D-01
              MO Center=  6.0D-02,  4.5D-01, -3.3D-01, r^2= 2.6D+00
   Bfn.  Coefficient  Atom+Function         Bfn.  Coefficient  Atom+Function  
  ----- ------------  ---------------      ----- ------------  ---------------
    68      0.191765  2 O  px                65      0.188951  2 O  px         
    70     -0.179163  2 O  pz                67     -0.175637  2 O  pz         
    66     -0.156667  2 O  py                69     -0.156266  2 O  py         
   235      0.147624  5 O  pz               232      0.146803  5 O  pz         
    71      0.123199  2 O  px               121     -0.120532  3 O  py         

 Vector   25  Occ=1.000000D+00  E=-3.049119D-01
              MO Center= -4.8D-02, -3.0D-01,  3.1D-01, r^2= 3.0D+00
   Bfn.  Coefficient  Atom+Function         Bfn.  Coefficient  Atom+Function  
  ----- ------------  ---------------      ----- ------------  ---------------
   125      0.208067  3 O  pz               122      0.204789  3 O  pz         
   178     -0.203016  4 O  px               175     -0.198799  4 O  px         
   235     -0.165644  5 O  pz               232     -0.164506  5 O  pz         
   128      0.157597  3 O  pz               181     -0.143009  4 O  px         
   238     -0.131823  5 O  pz                68      0.128690  2 O  px         

 Vector   26  Occ=0.000000D+00  E=-5.757124D-02
              MO Center=  9.4D-01,  3.0D-01,  5.5D-01, r^2= 8.0D+00
   Bfn.  Coefficient  Atom+Function         Bfn.  Coefficient  Atom+Function  
  ----- ------------  ---------------      ----- ------------  ---------------
   229      0.524307  5 O  s                 64      0.420531  2 O  s          
   283     -0.394606  6 H  s                 18      0.376685  1 P  pz         
   308     -0.375561  7 H  s                 16      0.244061  1 P  px         
    37     -0.239211  1 P  dyy               34     -0.212029  1 P  dxx        
     3     -0.183583  1 P  s                282     -0.181231  6 H  s          

 Vector   27  Occ=0.000000D+00  E=-1.533110D-02
              MO Center=  1.3D+00,  4.7D-01,  8.5D-01, r^2= 1.1D+01
   Bfn.  Coefficient  Atom+Function         Bfn.  Coefficient  Atom+Function  
  ----- ------------  ---------------      ----- ------------  ---------------
   308     -1.095579  7 H  s                283      1.085703  6 H  s          
   119      0.328298  3 O  s                174     -0.323076  4 O  s          
    18      0.271262  1 P  pz                16     -0.200187  1 P  px         
   186      0.195973  4 O  pz               118     -0.186714  3 O  s          
   173      0.183999  4 O  s                307     -0.181137  7 H  s          

 Vector   28  Occ=0.000000D+00  E= 3.255033D-03
              MO Center= -5.8D-03,  2.0D-01, -2.0D-01, r^2= 1.0D+01
   Bfn.  Coefficient  Atom+Function         Bfn.  Coefficient  Atom+Function  
  ----- ------------  ---------------      ----- ------------  ---------------
     6      1.968057  1 P  s                 19     -0.716190  1 P  px         
     5      0.711599  1 P  s                 21     -0.624026  1 P  pz         
    64     -0.546179  2 O  s                229     -0.376515  5 O  s          
   308     -0.362897  7 H  s                283     -0.347254  6 H  s          
    17      0.326779  1 P  py                75      0.285442  2 O  py         

 Vector   29  Occ=0.000000D+00  E= 2.291173D-02
              MO Center=  2.5D-01, -8.0D-02,  1.8D-01, r^2= 1.5D+01
   Bfn.  Coefficient  Atom+Function         Bfn.  Coefficient  Atom+Function  
  ----- ------------  ---------------      ----- ------------  ---------------
    17      1.939711  1 P  py                20      1.723469  1 P  py         
    64     -1.316127  2 O  s                 18     -1.077611  1 P  pz         
   119      0.739956  3 O  s                129     -0.680228  3 O  px         
    19      0.603685  1 P  px                51     -0.592689  1 P  fxxy       
    21     -0.571750  1 P  pz               174      0.564369  4 O  s          

 Vector   30  Occ=0.000000D+00  E= 3.686991D-02
              MO Center=  4.0D-01,  8.8D-02,  1.2D-01, r^2= 2.2D+01
   Bfn.  Coefficient  Atom+Function         Bfn.  Coefficient  Atom+Function  
  ----- ------------  ---------------      ----- ------------  ---------------
     6      7.824883  1 P  s                308     -2.146030  7 H  s          
   283     -2.044713  6 H  s                  5      1.995428  1 P  s          
    19      1.765518  1 P  px                21      1.483712  1 P  pz         
   174     -1.461673  4 O  s                119     -1.213560  3 O  s          
    18      1.126273  1 P  pz                17     -1.016440  1 P  py         

 Vector   31  Occ=0.000000D+00  E= 3.985172D-02
              MO Center= -1.4D-01,  1.5D-01, -2.4D-01, r^2= 9.5D+00
   Bfn.  Coefficient  Atom+Function         Bfn.  Coefficient  Atom+Function  
  ----- ------------  ---------------      ----- ------------  ---------------
   174      1.664552  4 O  s                283     -1.647884  6 H  s          
   119     -1.607833  3 O  s                 19      1.582840  1 P  px         
    21     -1.580675  1 P  pz               308      1.445620  7 H  s          
    16      1.434631  1 P  px                18     -1.358031  1 P  pz         
    20     -1.033072  1 P  py                17     -0.927696  1 P  py         

 Vector   32  Occ=0.000000D+00  E= 5.166731D-02
              MO Center=  3.6D-01, -1.9D-01,  4.8D-01, r^2= 1.1D+01
   Bfn.  Coefficient  Atom+Function         Bfn.  Coefficient  Atom+Function  
  ----- ------------  ---------------      ----- ------------  ---------------
   119      2.314825  3 O  s                  6      2.172010  1 P  s          
   174      1.841074  4 O  s                 34     -1.068492  1 P  dxx        
   282     -1.025088  6 H  s                 19     -0.944901  1 P  px         
    39     -0.927443  1 P  dzz              307     -0.746304  7 H  s          
    37     -0.696581  1 P  dyy               21     -0.691747  1 P  pz         

 Vector   33  Occ=0.000000D+00  E= 5.751023D-02
              MO Center= -5.0D-01, -8.7D-02, -5.0D-01, r^2= 1.1D+01
   Bfn.  Coefficient  Atom+Function         Bfn.  Coefficient  Atom+Function  
  ----- ------------  ---------------      ----- ------------  ---------------
   174      2.376969  4 O  s                119     -1.969276  3 O  s          
   307     -1.344156  7 H  s                 19      1.287673  1 P  px         
    21     -1.276770  1 P  pz               282      1.149097  6 H  s          
     6      1.040760  1 P  s                 20     -1.026693  1 P  py         
    39     -0.667022  1 P  dzz              129     -0.477677  3 O  px         

 Vector   34  Occ=0.000000D+00  E= 6.201597D-02
              MO Center=  5.1D-01, -5.4D-01,  4.8D-01, r^2= 9.9D+00
   Bfn.  Coefficient  Atom+Function         Bfn.  Coefficient  Atom+Function  
  ----- ------------  ---------------      ----- ------------  ---------------
     6      7.467203  1 P  s                 16     -3.707837  1 P  px         
    18     -3.074724  1 P  pz               229     -2.542014  5 O  s          
    39     -1.870868  1 P  dzz               34     -1.612787  1 P  dxx        
    37     -1.549077  1 P  dyy                5     -1.248569  1 P  s          
   119      1.112327  3 O  s                283     -1.053795  6 H  s          

 Vector   35  Occ=0.000000D+00  E= 6.502457D-02
              MO Center=  1.3D+00,  2.5D-01,  1.5D+00, r^2= 1.8D+01
   Bfn.  Coefficient  Atom+Function         Bfn.  Coefficient  Atom+Function  
  ----- ------------  ---------------      ----- ------------  ---------------
   308     -2.904980  7 H  s                283      2.697570  6 H  s          
   282      2.210080  6 H  s                307     -2.202019  7 H  s          
   174      2.011504  4 O  s                119     -1.832886  3 O  s          
    21      1.294554  1 P  pz                19     -1.109507  1 P  px         
    20      0.874908  1 P  py               185      0.870117  4 O  py         

 Vector   36  Occ=0.000000D+00  E= 7.578923D-02
              MO Center=  4.0D-01,  4.9D-01, -5.0D-02, r^2= 1.2D+01
   Bfn.  Coefficient  Atom+Function         Bfn.  Coefficient  Atom+Function  
  ----- ------------  ---------------      ----- ------------  ---------------
     6      5.905730  1 P  s                  5      4.496523  1 P  s          
    64     -4.185324  2 O  s                 17      2.877747  1 P  py         
   119     -1.974821  3 O  s                174     -1.899630  4 O  s          
   282      1.860679  6 H  s                307      1.861227  7 H  s          
   229     -1.820791  5 O  s                 18     -1.588891  1 P  pz         

 Vector   37  Occ=0.000000D+00  E= 8.356775D-02
              MO Center=  2.6D-01,  2.2D-01,  3.7D-02, r^2= 1.3D+01
   Bfn.  Coefficient  Atom+Function         Bfn.  Coefficient  Atom+Function  
  ----- ------------  ---------------      ----- ------------  ---------------
    16      3.692504  1 P  px               119     -3.268109  3 O  s          
     5      3.107150  1 P  s                  6     -2.507500  1 P  s          
    64     -2.466560  2 O  s                 17      2.365048  1 P  py         
   282      1.706388  6 H  s                 35     -1.648754  1 P  dxy        
   307      1.465689  7 H  s                 39      1.399290  1 P  dzz        

 Vector   38  Occ=0.000000D+00  E= 8.420783D-02
              MO Center=  7.5D-01, -1.8D-01,  2.2D-01, r^2= 1.6D+01
   Bfn.  Coefficient  Atom+Function         Bfn.  Coefficient  Atom+Function  
  ----- ------------  ---------------      ----- ------------  ---------------
    16      6.009763  1 P  px               119     -5.003010  3 O  s          
    17     -4.739784  1 P  py               174      4.603995  4 O  s          
    18     -2.946017  1 P  pz                 6      2.588591  1 P  s          
     5     -2.348126  1 P  s                283     -2.206624  6 H  s          
    39     -1.998625  1 P  dzz              229      1.990255  5 O  s          

 Vector   39  Occ=0.000000D+00  E= 8.492442D-02
              MO Center= -7.7D-01, -3.2D-01, -1.7D-02, r^2= 1.4D+01
   Bfn.  Coefficient  Atom+Function         Bfn.  Coefficient  Atom+Function  
  ----- ------------  ---------------      ----- ------------  ---------------
    18      7.835190  1 P  pz               229      6.960025  5 O  s          
     6      6.617545  1 P  s                  5     -4.730314  1 P  s          
    16      4.718159  1 P  px               174     -4.153655  4 O  s          
    34     -2.818829  1 P  dxx               37     -2.503022  1 P  dyy        
    64      2.347137  2 O  s                 35     -2.160779  1 P  dxy        

 Vector   40  Occ=0.000000D+00  E= 9.724356D-02
              MO Center=  1.5D-02, -4.3D-01,  3.3D-01, r^2= 8.0D+00
   Bfn.  Coefficient  Atom+Function         Bfn.  Coefficient  Atom+Function  
  ----- ------------  ---------------      ----- ------------  ---------------
   119      2.984559  3 O  s                174      2.549297  4 O  s          
     5     -2.361250  1 P  s                282     -1.931270  6 H  s          
    64      1.827451  2 O  s                307     -1.731729  7 H  s          
    16     -1.674632  1 P  px               185      1.180030  4 O  py         
    17     -1.035870  1 P  py                37     -1.031238  1 P  dyy        

 Vector   41  Occ=0.000000D+00  E= 1.268031D-01
              MO Center=  5.1D-01,  1.9D-01,  2.2D-01, r^2= 1.7D+01
   Bfn.  Coefficient  Atom+Function         Bfn.  Coefficient  Atom+Function  
  ----- ------------  ---------------      ----- ------------  ---------------
     5     20.185788  1 P  s                 64     -8.306852  2 O  s          
   229     -6.828001  5 O  s                 37      6.426023  1 P  dyy        
     6     -6.078795  1 P  s                 34      5.911198  1 P  dxx        
    39      5.570042  1 P  dzz               75      3.378414  2 O  py         
   129      2.998318  3 O  px               119     -2.672908  3 O  s          

 Vector   42  Occ=0.000000D+00  E= 1.395145D-01
              MO Center= -1.7D-01, -1.2D-01, -7.9D-02, r^2= 1.7D+01
   Bfn.  Coefficient  Atom+Function         Bfn.  Coefficient  Atom+Function  
  ----- ------------  ---------------      ----- ------------  ---------------
   119      6.216256  3 O  s                174     -5.995238  4 O  s          
   282     -4.276669  6 H  s                307      3.894483  7 H  s          
   186      2.599507  4 O  pz                38     -2.534901  1 P  dyz        
    34      2.103481  1 P  dxx               18      2.007056  1 P  pz         
    36     -1.933247  1 P  dxz              308     -1.831458  7 H  s          

 Vector   43  Occ=0.000000D+00  E= 1.503406D-01
              MO Center=  3.8D-01, -4.7D-01,  4.7D-02, r^2= 1.4D+01
   Bfn.  Coefficient  Atom+Function         Bfn.  Coefficient  Atom+Function  
  ----- ------------  ---------------      ----- ------------  ---------------
   174     -4.427242  4 O  s                  6      4.268392  1 P  s          
   307      3.572057  7 H  s                  5      2.990656  1 P  s          
   282     -2.198536  6 H  s                131     -2.019870  3 O  pz         
   185     -2.019558  4 O  py                17     -1.698975  1 P  py         
    18      1.507771  1 P  pz               129      1.319988  3 O  px         

 Vector   44  Occ=0.000000D+00  E= 1.513181D-01
              MO Center= -2.5D-01,  1.6D-01,  2.3D-01, r^2= 1.5D+01
   Bfn.  Coefficient  Atom+Function         Bfn.  Coefficient  Atom+Function  
  ----- ------------  ---------------      ----- ------------  ---------------
     6      7.007221  1 P  s                119     -5.599178  3 O  s          
     5      5.492084  1 P  s                174     -3.822472  4 O  s          
    17     -3.414279  1 P  py               282      2.947803  6 H  s          
    18      2.738443  1 P  pz               130     -1.912066  3 O  py         
    19      1.764216  1 P  px               118     -1.663023  3 O  s          

 Vector   45  Occ=0.000000D+00  E= 1.555495D-01
              MO Center=  4.0D-01, -5.8D-01,  9.1D-01, r^2= 1.4D+01
   Bfn.  Coefficient  Atom+Function         Bfn.  Coefficient  Atom+Function  
  ----- ------------  ---------------      ----- ------------  ---------------
   307      5.273133  7 H  s                282     -4.125758  6 H  s          
    16      3.330411  1 P  px                18     -3.247957  1 P  pz         
    17     -2.724296  1 P  py               129      2.559825  3 O  px         
   184     -2.400019  4 O  px               308      2.350365  7 H  s          
    21     -2.179959  1 P  pz               283     -2.061881  6 H  s          

 Vector   46  Occ=0.000000D+00  E= 1.580845D-01
              MO Center=  1.3D-01, -2.6D-01,  1.3D-01, r^2= 1.4D+01
   Bfn.  Coefficient  Atom+Function         Bfn.  Coefficient  Atom+Function  
  ----- ------------  ---------------      ----- ------------  ---------------
     6      9.602768  1 P  s                282     -5.119663  6 H  s          
    64     -4.529434  2 O  s                307     -4.238588  7 H  s          
   174      3.503172  4 O  s                119      3.417646  3 O  s          
    19      2.164949  1 P  px                18     -1.835028  1 P  pz         
   130      1.810139  3 O  py               283     -1.617213  6 H  s          

 Vector   47  Occ=0.000000D+00  E= 1.696506D-01
              MO Center=  8.2D-02, -2.0D-01,  1.8D-01, r^2= 1.3D+01
   Bfn.  Coefficient  Atom+Function         Bfn.  Coefficient  Atom+Function  
  ----- ------------  ---------------      ----- ------------  ---------------
     5      3.656554  1 P  s                  6     -3.513355  1 P  s          
   229      3.458399  5 O  s                 17      3.340483  1 P  py         
    16      2.874579  1 P  px                64     -2.110830  2 O  s          
    21     -1.655439  1 P  pz               241      1.573991  5 O  pz         
    51     -1.536115  1 P  fxxy             239      1.408166  5 O  px         

 Vector   48  Occ=0.000000D+00  E= 1.730753D-01
              MO Center= -7.4D-01,  2.3D-01, -9.1D-01, r^2= 1.4D+01
   Bfn.  Coefficient  Atom+Function         Bfn.  Coefficient  Atom+Function  
  ----- ------------  ---------------      ----- ------------  ---------------
     5     10.822184  1 P  s                229     -7.372679  5 O  s          
   174     -6.810988  4 O  s                119     -6.673545  3 O  s          
    34      5.291400  1 P  dxx               17     -4.580349  1 P  py         
    37      4.162099  1 P  dyy               39      4.108874  1 P  dzz        
    19      3.149863  1 P  px                18      3.019763  1 P  pz         

 Vector   49  Occ=0.000000D+00  E= 1.813285D-01
              MO Center= -4.5D-01, -6.3D-01, -6.8D-02, r^2= 1.7D+01
   Bfn.  Coefficient  Atom+Function         Bfn.  Coefficient  Atom+Function  
  ----- ------------  ---------------      ----- ------------  ---------------
    17      7.392496  1 P  py               229      7.091992  5 O  s          
    64     -6.404654  2 O  s                174      5.518172  4 O  s          
     5     -5.289852  1 P  s                119      5.119073  3 O  s          
    20     -4.575907  1 P  py                16      4.191352  1 P  px         
    75      4.034209  2 O  py               240      3.733133  5 O  py         

 Vector   50  Occ=0.000000D+00  E= 1.889790D-01
              MO Center= -8.4D-01, -7.9D-02, -6.9D-01, r^2= 1.5D+01
   Bfn.  Coefficient  Atom+Function         Bfn.  Coefficient  Atom+Function  
  ----- ------------  ---------------      ----- ------------  ---------------
   119      3.981430  3 O  s                174     -3.444622  4 O  s          
   282     -3.213833  6 H  s                 21      3.174643  1 P  pz         
    19     -3.157002  1 P  px               307      3.002758  7 H  s          
    18      2.538105  1 P  pz                16     -2.307221  1 P  px         
    17      2.250241  1 P  py                20      2.064950  1 P  py         

 Vector   51  Occ=0.000000D+00  E= 2.062949D-01
              MO Center=  3.0D-01,  3.4D-01, -8.7D-03, r^2= 1.4D+01
   Bfn.  Coefficient  Atom+Function         Bfn.  Coefficient  Atom+Function  
  ----- ------------  ---------------      ----- ------------  ---------------
     6     20.099940  1 P  s                 64     10.084267  2 O  s          
    17     -7.647978  1 P  py                37     -7.640205  1 P  dyy        
    34     -7.276612  1 P  dxx               39     -6.286784  1 P  dzz        
     5     -5.322996  1 P  s                 16     -4.550924  1 P  px         
    75     -3.696728  2 O  py               119     -3.271410  3 O  s          

 Vector   52  Occ=0.000000D+00  E= 2.327444D-01
              MO Center=  2.7D-01, -2.8D-01,  4.1D-01, r^2= 1.3D+01
   Bfn.  Coefficient  Atom+Function         Bfn.  Coefficient  Atom+Function  
  ----- ------------  ---------------      ----- ------------  ---------------
     6     11.407315  1 P  s                 17      8.406095  1 P  py         
    39     -6.869607  1 P  dzz              229      6.293441  5 O  s          
    34     -6.012333  1 P  dxx               37     -5.310749  1 P  dyy        
   119      4.654025  3 O  s                174      4.443444  4 O  s          
    16      4.318373  1 P  px                64     -3.360097  2 O  s          

 Vector   53  Occ=0.000000D+00  E= 2.342589D-01
              MO Center= -1.3D-01,  2.1D-01, -3.2D-01, r^2= 1.2D+01
   Bfn.  Coefficient  Atom+Function         Bfn.  Coefficient  Atom+Function  
  ----- ------------  ---------------      ----- ------------  ---------------
   174     -5.372628  4 O  s                119      5.157717  3 O  s          
    39      3.925244  1 P  dzz               35      3.774979  1 P  dxy        
   282      3.384218  6 H  s                307     -3.004660  7 H  s          
    34     -2.852592  1 P  dxx               16     -2.432400  1 P  px         
    18      2.222423  1 P  pz               173     -1.932040  4 O  s          

 Vector   54  Occ=0.000000D+00  E= 2.365830D-01
              MO Center=  6.9D-02, -3.8D-01,  3.1D-01, r^2= 1.1D+01
   Bfn.  Coefficient  Atom+Function         Bfn.  Coefficient  Atom+Function  
  ----- ------------  ---------------      ----- ------------  ---------------
    64     13.392324  2 O  s                 17    -11.593228  1 P  py         
     6      6.956622  1 P  s                 16     -5.765686  1 P  px         
   119     -5.668951  3 O  s                174     -5.254079  4 O  s          
   307      5.099849  7 H  s                282      5.024881  6 H  s          
    37     -4.868069  1 P  dyy              229     -4.697285  5 O  s          

 Vector   55  Occ=0.000000D+00  E= 2.481432D-01
              MO Center=  1.3D-01, -1.8D-01,  3.3D-01, r^2= 1.1D+01
   Bfn.  Coefficient  Atom+Function         Bfn.  Coefficient  Atom+Function  
  ----- ------------  ---------------      ----- ------------  ---------------
   174      4.252484  4 O  s                 18     -3.308966  1 P  pz         
    17     -2.113898  1 P  py               229     -1.939216  5 O  s          
   119     -1.899643  3 O  s                186     -1.814602  4 O  pz         
    38     -1.631816  1 P  dyz              292     -1.632850  6 H  pz         
    34      1.588315  1 P  dxx              241     -1.488340  5 O  pz         

 Vector   56  Occ=0.000000D+00  E= 2.506044D-01
              MO Center= -2.5D-01, -4.6D-01, -4.3D-02, r^2= 1.2D+01
   Bfn.  Coefficient  Atom+Function         Bfn.  Coefficient  Atom+Function  
  ----- ------------  ---------------      ----- ------------  ---------------
   229     11.785241  5 O  s                119     -9.981600  3 O  s          
   174     -8.852732  4 O  s                 16      7.575296  1 P  px         
    18      5.428434  1 P  pz                35     -5.433181  1 P  dxy        
    36     -4.097972  1 P  dxz                6     -3.593041  1 P  s          
   239      3.125218  5 O  px                39      3.000528  1 P  dzz        

 Vector   57  Occ=0.000000D+00  E= 2.713049D-01
              MO Center=  4.6D-01, -6.2D-01,  8.4D-01, r^2= 1.2D+01
   Bfn.  Coefficient  Atom+Function         Bfn.  Coefficient  Atom+Function  
  ----- ------------  ---------------      ----- ------------  ---------------
   119     15.787591  3 O  s                174    -15.604065  4 O  s          
   282     -9.015329  6 H  s                307      8.894940  7 H  s          
    16     -4.643131  1 P  px                18      4.609112  1 P  pz         
   130      4.051137  3 O  py                17      3.117378  1 P  py         
   184     -3.027452  4 O  px               186      2.639458  4 O  pz         

 Vector   58  Occ=0.000000D+00  E= 2.832591D-01
              MO Center=  9.3D-01,  9.4D-02,  7.9D-01, r^2= 1.0D+01
   Bfn.  Coefficient  Atom+Function         Bfn.  Coefficient  Atom+Function  
  ----- ------------  ---------------      ----- ------------  ---------------
   129      3.301399  3 O  px               119     -2.816649  3 O  s          
   186     -2.674965  4 O  pz               185     -2.501389  4 O  py         
   291      2.190834  6 H  py               315     -1.895867  7 H  px         
   317      1.812774  7 H  pz               131     -1.721841  3 O  pz         
   307      1.715263  7 H  s                174      1.674915  4 O  s          

 Vector   59  Occ=0.000000D+00  E= 2.918454D-01
              MO Center=  2.3D-01,  3.1D-01, -5.8D-02, r^2= 1.3D+01
   Bfn.  Coefficient  Atom+Function         Bfn.  Coefficient  Atom+Function  
  ----- ------------  ---------------      ----- ------------  ---------------
     5     14.152240  1 P  s                174    -12.283291  4 O  s          
   119    -11.295367  3 O  s                 64     -9.787797  2 O  s          
   307      7.272960  7 H  s                282      7.084456  6 H  s          
    17      6.639115  1 P  py               229     -6.480139  5 O  s          
    39      5.354511  1 P  dzz               34      4.650893  1 P  dxx        

 Vector   60  Occ=0.000000D+00  E= 3.034843D-01
              MO Center=  1.2D+00,  2.4D-01,  7.4D-01, r^2= 1.1D+01
   Bfn.  Coefficient  Atom+Function         Bfn.  Coefficient  Atom+Function  
  ----- ------------  ---------------      ----- ------------  ---------------
   118      3.739623  3 O  s                173     -3.604916  4 O  s          
   290      3.538473  6 H  px               174     -3.138639  4 O  s          
   119      2.944350  3 O  s                282     -2.822089  6 H  s          
   316     -2.830034  7 H  py               307      2.665729  7 H  s          
   129     -1.950412  3 O  px                39      1.850679  1 P  dzz        

 Vector   61  Occ=0.000000D+00  E= 3.057519D-01
              MO Center= -7.3D-01, -5.0D-01, -2.2D-01, r^2= 1.3D+01
   Bfn.  Coefficient  Atom+Function         Bfn.  Coefficient  Atom+Function  
  ----- ------------  ---------------      ----- ------------  ---------------
   229     20.183195  5 O  s                  5    -14.934250  1 P  s          
    16     12.662875  1 P  px                18      9.278836  1 P  pz         
     6      8.127996  1 P  s                 34     -6.527073  1 P  dxx        
    39     -5.353426  1 P  dzz               37     -5.010123  1 P  dyy        
   239      4.537154  5 O  px                55     -4.108177  1 P  fxzz       

 Vector   62  Occ=0.000000D+00  E= 3.137186D-01
              MO Center= -1.9D-02, -3.5D-01,  2.0D-01, r^2= 1.2D+01
   Bfn.  Coefficient  Atom+Function         Bfn.  Coefficient  Atom+Function  
  ----- ------------  ---------------      ----- ------------  ---------------
    64    -23.725048  2 O  s                  5     22.500307  1 P  s          
   229    -13.367360  5 O  s                 37     11.880742  1 P  dyy        
   119     -8.833868  3 O  s                174     -8.615709  4 O  s          
     6      6.813278  1 P  s                 35      6.746092  1 P  dxy        
    34      5.507867  1 P  dxx               39      4.555959  1 P  dzz        

 Vector   63  Occ=0.000000D+00  E= 3.369999D-01
              MO Center=  1.0D+00,  7.2D-01,  3.2D-01, r^2= 1.2D+01
   Bfn.  Coefficient  Atom+Function         Bfn.  Coefficient  Atom+Function  
  ----- ------------  ---------------      ----- ------------  ---------------
     5     29.008314  1 P  s                 64    -13.949487  2 O  s          
   229    -13.651409  5 O  s                 34     11.002564  1 P  dxx        
    39      8.500222  1 P  dzz               37      8.452685  1 P  dyy        
   307     -6.730899  7 H  s                282     -6.472881  6 H  s          
     6     -5.740303  1 P  s                119     -4.144918  3 O  s          

 Vector   64  Occ=0.000000D+00  E= 3.507472D-01
              MO Center=  2.2D-01, -5.1D-01,  6.2D-01, r^2= 1.1D+01
   Bfn.  Coefficient  Atom+Function         Bfn.  Coefficient  Atom+Function  
  ----- ------------  ---------------      ----- ------------  ---------------
    18      9.055577  1 P  pz               174     -8.820812  4 O  s          
   119      7.373533  3 O  s                 16     -5.900254  1 P  px         
    17      5.870028  1 P  py                38     -4.325870  1 P  dyz        
   186      4.338338  4 O  pz               129     -4.056876  3 O  px         
    36     -3.878687  1 P  dxz               57     -3.375226  1 P  fyyz       

 Vector   65  Occ=0.000000D+00  E= 3.581893D-01
              MO Center=  2.9D-01, -4.4D-01,  6.0D-01, r^2= 1.1D+01
   Bfn.  Coefficient  Atom+Function         Bfn.  Coefficient  Atom+Function  
  ----- ------------  ---------------      ----- ------------  ---------------
   229     17.834639  5 O  s                 16     17.633463  1 P  px         
    18     12.648259  1 P  pz                35    -10.276355  1 P  dxy        
   119     -7.677147  3 O  s                174     -6.901087  4 O  s          
    38     -6.027626  1 P  dyz               53     -4.841158  1 P  fxyy       
     5     -4.684670  1 P  s                 50     -4.648426  1 P  fxxx       

 Vector   66  Occ=0.000000D+00  E= 3.632813D-01
              MO Center= -1.5D-01,  2.9D-01, -3.6D-01, r^2= 9.8D+00
   Bfn.  Coefficient  Atom+Function         Bfn.  Coefficient  Atom+Function  
  ----- ------------  ---------------      ----- ------------  ---------------
    18     19.933916  1 P  pz                16    -17.319471  1 P  px         
    17     13.505058  1 P  py               174     -8.081988  4 O  s          
    34     -7.050449  1 P  dxx               38      6.688261  1 P  dyz        
   119      6.563198  3 O  s                 39      5.928730  1 P  dzz        
    55      5.513670  1 P  fxzz              52     -5.476742  1 P  fxxz       

 Vector   67  Occ=0.000000D+00  E= 3.704326D-01
              MO Center= -3.8D-02,  2.1D-02, -1.3D-01, r^2= 1.0D+01
   Bfn.  Coefficient  Atom+Function         Bfn.  Coefficient  Atom+Function  
  ----- ------------  ---------------      ----- ------------  ---------------
    18     18.560956  1 P  pz               119    -17.716136  3 O  s          
   174    -16.435548  4 O  s                 17    -14.635172  1 P  py         
     5     14.114108  1 P  s                 16     11.115964  1 P  px         
    64      8.036728  2 O  s                229     -7.948606  5 O  s          
    34      6.963677  1 P  dxx               39      6.003096  1 P  dzz        

 Vector   68  Occ=0.000000D+00  E= 3.842157D-01
              MO Center=  6.9D-01,  3.5D-02,  5.7D-01, r^2= 9.0D+00
   Bfn.  Coefficient  Atom+Function         Bfn.  Coefficient  Atom+Function  
  ----- ------------  ---------------      ----- ------------  ---------------
   229    -10.798352  5 O  s                  5      9.829164  1 P  s          
   174     -8.872059  4 O  s                119     -8.344206  3 O  s          
    34      6.992551  1 P  dxx               18      5.826997  1 P  pz         
    36      5.517760  1 P  dxz               35      4.824528  1 P  dxy        
   282      4.664100  6 H  s                307      4.394156  7 H  s          

 Vector   69  Occ=0.000000D+00  E= 4.080849D-01
              MO Center=  2.2D-01,  7.2D-02,  1.7D-01, r^2= 1.0D+01
   Bfn.  Coefficient  Atom+Function         Bfn.  Coefficient  Atom+Function  
  ----- ------------  ---------------      ----- ------------  ---------------
    17     15.953027  1 P  py                16     11.972938  1 P  px         
   229     11.965382  5 O  s                 18     -8.640576  1 P  pz         
     5     -8.518288  1 P  s                174      8.311017  4 O  s          
     6     -7.208820  1 P  s                 64     -7.219852  2 O  s          
   282      6.679081  6 H  s                 36     -5.039639  1 P  dxz        

 Vector   70  Occ=0.000000D+00  E= 4.093121D-01
              MO Center=  3.3D-02, -1.8D-01,  7.3D-02, r^2= 9.3D+00
   Bfn.  Coefficient  Atom+Function         Bfn.  Coefficient  Atom+Function  
  ----- ------------  ---------------      ----- ------------  ---------------
    17     14.479406  1 P  py               119     13.832837  3 O  s          
    18     11.397881  1 P  pz               174    -10.934481  4 O  s          
    16     -9.413028  1 P  px                36     -4.599041  1 P  dxz        
    58     -4.317156  1 P  fyzz             307      4.231880  7 H  s          
    35      4.003635  1 P  dxy               56     -3.313460  1 P  fyyy       

 Vector   71  Occ=0.000000D+00  E= 4.399883D-01
              MO Center=  6.3D-01, -3.5D-01,  4.4D-01, r^2= 1.0D+01
   Bfn.  Coefficient  Atom+Function         Bfn.  Coefficient  Atom+Function  
  ----- ------------  ---------------      ----- ------------  ---------------
   282     23.348639  6 H  s                307    -18.543816  7 H  s          
   119    -12.018109  3 O  s                174      8.972499  4 O  s          
    16     -7.008385  1 P  px               290     -5.386983  6 H  px         
    18      4.441183  1 P  pz                34     -4.366455  1 P  dxx        
    38      4.251302  1 P  dyz              281     -3.683538  6 H  s          

 Vector   72  Occ=0.000000D+00  E= 4.419671D-01
              MO Center=  3.4D-01,  1.9D-01,  5.4D-01, r^2= 1.0D+01
   Bfn.  Coefficient  Atom+Function         Bfn.  Coefficient  Atom+Function  
  ----- ------------  ---------------      ----- ------------  ---------------
    17     28.233996  1 P  py               307    -21.967077  7 H  s          
    16     19.589977  1 P  px                64    -16.628664  2 O  s          
   282    -16.536922  6 H  s                174     13.584250  4 O  s          
   119     10.357622  3 O  s                  5      7.480723  1 P  s          
    58     -6.356798  1 P  fyzz              56     -6.183223  1 P  fyyy       

 Vector   73  Occ=0.000000D+00  E= 4.882724D-01
              MO Center=  4.0D-01,  1.9D-01,  1.9D-01, r^2= 7.1D+00
   Bfn.  Coefficient  Atom+Function         Bfn.  Coefficient  Atom+Function  
  ----- ------------  ---------------      ----- ------------  ---------------
   229     10.287570  5 O  s                 34     -7.701668  1 P  dxx        
     5     -6.396632  1 P  s                 17      5.642553  1 P  py         
     6      4.979694  1 P  s                 36     -4.645324  1 P  dxz        
    39     -4.396688  1 P  dzz              174      4.099867  4 O  s          
    38     -3.941365  1 P  dyz              119      3.780358  3 O  s          

 Vector   74  Occ=0.000000D+00  E= 5.021677D-01
              MO Center= -4.7D-02,  1.5D-01, -1.8D-01, r^2= 6.4D+00
   Bfn.  Coefficient  Atom+Function         Bfn.  Coefficient  Atom+Function  
  ----- ------------  ---------------      ----- ------------  ---------------
   307     -6.155877  7 H  s                282      5.630832  6 H  s          
    16      4.468880  1 P  px                18     -3.941269  1 P  pz         
   174      3.840426  4 O  s                 51      3.787801  1 P  fxxy       
   119     -3.533808  3 O  s                 53     -3.170932  1 P  fxyy       
   173     -3.084106  4 O  s                 59      3.068565  1 P  fzzz       

 Vector   75  Occ=0.000000D+00  E= 5.049505D-01
              MO Center=  2.5D-01,  7.1D-03,  1.7D-01, r^2= 1.1D+01
   Bfn.  Coefficient  Atom+Function         Bfn.  Coefficient  Atom+Function  
  ----- ------------  ---------------      ----- ------------  ---------------
     5     28.727332  1 P  s                  6     23.226765  1 P  s          
    37    -13.612300  1 P  dyy               39    -13.503646  1 P  dzz        
    34    -13.115241  1 P  dxx               63    -13.147547  2 O  s          
   228    -12.970705  5 O  s                 64     11.521833  2 O  s          
   118     -9.917983  3 O  s                173     -9.782445  4 O  s          

 Vector   76  Occ=0.000000D+00  E= 5.582619D-01
              MO Center= -5.0D-01, -5.4D-02, -4.8D-01, r^2= 7.8D+00
   Bfn.  Coefficient  Atom+Function         Bfn.  Coefficient  Atom+Function  
  ----- ------------  ---------------      ----- ------------  ---------------
    64      9.836747  2 O  s                 17     -6.628526  1 P  py         
   282      5.618584  6 H  s                 37     -5.367698  1 P  dyy        
   307      5.289458  7 H  s                 38      4.208167  1 P  dyz        
   119     -3.890336  3 O  s                174     -3.753694  4 O  s          
     6      3.390992  1 P  s                 35     -3.222595  1 P  dxy        

 Vector   77  Occ=0.000000D+00  E= 5.776326D-01
              MO Center=  1.5D-02, -1.9D-01, -1.2D-01, r^2= 7.7D+00
   Bfn.  Coefficient  Atom+Function         Bfn.  Coefficient  Atom+Function  
  ----- ------------  ---------------      ----- ------------  ---------------
   306      2.817389  7 H  s                118      2.621056  3 O  s          
   281     -2.480493  6 H  s                307     -2.404119  7 H  s          
   173     -2.388717  4 O  s                119      2.169487  3 O  s          
   317      2.023982  7 H  pz                18      1.967006  1 P  pz         
   282      1.638414  6 H  s                 17      1.522767  1 P  py         

 Vector   78  Occ=0.000000D+00  E= 5.893611D-01
              MO Center=  6.0D-01, -9.7D-03,  4.4D-01, r^2= 8.0D+00
   Bfn.  Coefficient  Atom+Function         Bfn.  Coefficient  Atom+Function  
  ----- ------------  ---------------      ----- ------------  ---------------
   307      3.747495  7 H  s                282     -3.220566  6 H  s          
   174     -3.109576  4 O  s                 54      2.730125  1 P  fxyz       
   119      2.655960  3 O  s                315     -1.512760  7 H  px         
   128     -1.468353  3 O  pz               146     -1.362131  3 O  dxz        
   129      1.315424  3 O  px                50     -1.264798  1 P  fxxx       

 Vector   79  Occ=0.000000D+00  E= 5.966142D-01
              MO Center=  1.8D-01,  2.7D-01, -1.9D-03, r^2= 7.6D+00
   Bfn.  Coefficient  Atom+Function         Bfn.  Coefficient  Atom+Function  
  ----- ------------  ---------------      ----- ------------  ---------------
     5      8.686698  1 P  s                282     -7.057155  6 H  s          
    64     -6.777542  2 O  s                307     -6.467435  7 H  s          
    35      5.914016  1 P  dxy              229     -4.642997  5 O  s          
    37      4.342695  1 P  dyy              119      3.553055  3 O  s          
    63     -3.426283  2 O  s                174      3.425329  4 O  s          

 Vector   80  Occ=0.000000D+00  E= 6.052049D-01
              MO Center= -9.4D-02, -3.8D-01,  1.1D-01, r^2= 7.9D+00
   Bfn.  Coefficient  Atom+Function         Bfn.  Coefficient  Atom+Function  
  ----- ------------  ---------------      ----- ------------  ---------------
    53      6.286973  1 P  fxyy              16     -5.075518  1 P  px         
    18     -4.707262  1 P  pz               119     -3.043466  3 O  s          
    59      2.792118  1 P  fzzz             174     -2.633524  4 O  s          
    50      2.483473  1 P  fxxx              52      2.356303  1 P  fxxz       
    38     -2.225530  1 P  dyz               57      2.094118  1 P  fyyz       

 Vector   81  Occ=0.000000D+00  E= 6.113899D-01
              MO Center=  2.5D-01, -1.1D-01,  5.2D-01, r^2= 7.7D+00
   Bfn.  Coefficient  Atom+Function         Bfn.  Coefficient  Atom+Function  
  ----- ------------  ---------------      ----- ------------  ---------------
   292      1.691809  6 H  pz               315     -1.638728  7 H  px         
   131     -1.506628  3 O  pz               148     -1.333900  3 O  dyz        
    53      1.289828  1 P  fxyy             200      1.171152  4 O  dxy        
   184      1.138976  4 O  px               199      1.110957  4 O  dxx        
   146     -1.096562  3 O  dxz              185     -1.080904  4 O  py         

 Vector   82  Occ=0.000000D+00  E= 6.162484D-01
              MO Center=  6.7D-03, -4.2D-01,  2.4D-01, r^2= 7.9D+00
   Bfn.  Coefficient  Atom+Function         Bfn.  Coefficient  Atom+Function  
  ----- ------------  ---------------      ----- ------------  ---------------
     5     22.208271  1 P  s                  6     -7.831697  1 P  s          
    17      6.949772  1 P  py                64     -6.981121  2 O  s          
   282     -6.950694  6 H  s                307     -6.881386  7 H  s          
    34      6.458071  1 P  dxx               51     -5.898739  1 P  fxxy       
    16      5.050078  1 P  px                39      4.599940  1 P  dzz        

 Vector   83  Occ=0.000000D+00  E= 6.336417D-01
              MO Center= -9.3D-02, -2.2D-01,  5.6D-02, r^2= 8.3D+00
   Bfn.  Coefficient  Atom+Function         Bfn.  Coefficient  Atom+Function  
  ----- ------------  ---------------      ----- ------------  ---------------
   282      5.813966  6 H  s                307     -5.506798  7 H  s          
   119     -4.131369  3 O  s                174      3.117614  4 O  s          
    54     -2.937730  1 P  fxyz             290     -2.063860  6 H  px         
   317      1.981414  7 H  pz               306      1.849601  7 H  s          
   281     -1.664201  6 H  s                 19      1.518141  1 P  px         

 Vector   84  Occ=0.000000D+00  E= 6.363705D-01
              MO Center= -2.5D-02, -2.8D-02, -1.3D-01, r^2= 7.5D+00
   Bfn.  Coefficient  Atom+Function         Bfn.  Coefficient  Atom+Function  
  ----- ------------  ---------------      ----- ------------  ---------------
   173      4.488895  4 O  s                118      4.465266  3 O  s          
   307     -3.823920  7 H  s                  5     -3.548711  1 P  s          
    35      3.561806  1 P  dxy               64     -3.473865  2 O  s          
   174      3.351504  4 O  s                 17      3.059123  1 P  py         
   229     -2.904279  5 O  s                 37      2.884929  1 P  dyy        

 Vector   85  Occ=0.000000D+00  E= 6.486792D-01
              MO Center=  3.2D-02, -2.0D-01,  1.4D-01, r^2= 7.9D+00
   Bfn.  Coefficient  Atom+Function         Bfn.  Coefficient  Atom+Function  
  ----- ------------  ---------------      ----- ------------  ---------------
[...]
  ----- ------------  ---------------      ----- ------------  ---------------
     5     -9.602204  1 P  s                  3      8.991997  1 P  s          
    69     -7.669931  2 O  py                61      6.642722  2 O  s          
   233      6.624522  5 O  px                 2      6.161004  1 P  s          
    72     -6.101377  2 O  py               226      5.681820  5 O  s          
   180      4.853997  4 O  pz               236      4.857981  5 O  px         

 Vector  322  Occ=0.000000D+00  E= 1.598067D+01
              MO Center= -5.2D-01,  8.2D-02, -5.9D-01, r^2= 3.0D+00
   Bfn.  Coefficient  Atom+Function         Bfn.  Coefficient  Atom+Function  
  ----- ------------  ---------------      ----- ------------  ---------------
   233      8.249173  5 O  px                69      8.194814  2 O  py         
    72      8.065572  2 O  py               236      8.080409  5 O  px         
   226      6.248429  5 O  s                 61     -5.518363  2 O  s          
   238      5.029652  5 O  pz                11      4.940310  1 P  py         
   234      4.802461  5 O  py                73     -4.409677  2 O  pz         

 Vector  323  Occ=0.000000D+00  E= 1.628523D+01
              MO Center=  4.4D-01, -5.2D-01,  7.4D-01, r^2= 3.2D+00
   Bfn.  Coefficient  Atom+Function         Bfn.  Coefficient  Atom+Function  
  ----- ------------  ---------------      ----- ------------  ---------------
   116     10.097177  3 O  s                171    -10.029037  4 O  s          
   183      6.575808  4 O  pz               180      6.226287  4 O  pz         
   124      5.399708  3 O  py                57      5.357597  1 P  fyyz       
   127      5.297972  3 O  py               115      4.617751  3 O  s          
   170     -4.588965  4 O  s                126     -4.393105  3 O  px         

 Vector  324  Occ=0.000000D+00  E= 1.678930D+01
              MO Center=  4.0D-01, -5.0D-01,  6.9D-01, r^2= 2.4D+00
   Bfn.  Coefficient  Atom+Function         Bfn.  Coefficient  Atom+Function  
  ----- ------------  ---------------      ----- ------------  ---------------
     5     12.039591  1 P  s                118    -11.095288  3 O  s          
   173    -10.937347  4 O  s                171     -7.991905  4 O  s          
   116     -7.922924  3 O  s                 63     -4.969628  2 O  s          
   236     -4.508747  5 O  px                72      4.323556  2 O  py         
   198      4.179880  4 O  dzz              138      3.861259  3 O  dxx        

 Vector  325  Occ=0.000000D+00  E= 1.697743D+01
              MO Center= -5.4D-01, -1.1D-01, -4.8D-01, r^2= 2.5D+00
   Bfn.  Coefficient  Atom+Function         Bfn.  Coefficient  Atom+Function  
  ----- ------------  ---------------      ----- ------------  ---------------
   228     15.603321  5 O  s                 63     13.756697  2 O  s          
     3     -5.471699  1 P  s                  5     -5.411448  1 P  s          
   183     -4.692394  4 O  pz               251     -4.263252  5 O  dyy        
   253     -4.274715  5 O  dzz               17      4.226317  1 P  py         
   229      4.239160  5 O  s                248     -4.226289  5 O  dxx        

 Vector  326  Occ=0.000000D+00  E= 1.704349D+01
              MO Center=  4.3D-01, -4.5D-01,  7.0D-01, r^2= 2.5D+00
   Bfn.  Coefficient  Atom+Function         Bfn.  Coefficient  Atom+Function  
  ----- ------------  ---------------      ----- ------------  ---------------
   173    -11.209571  4 O  s                118     11.078215  3 O  s          
   183     -5.368115  4 O  pz               180     -5.297604  4 O  pz         
    57     -5.187967  1 P  fyyz             124     -5.019590  3 O  py         
   127     -4.927297  3 O  py               204      4.598139  4 O  dzz        
   144     -4.433625  3 O  dxx               52     -4.335396  1 P  fxxz       

 Vector  327  Occ=0.000000D+00  E= 1.709590D+01
              MO Center= -2.1D-01,  3.6D-01, -4.9D-01, r^2= 2.4D+00
   Bfn.  Coefficient  Atom+Function         Bfn.  Coefficient  Atom+Function  
  ----- ------------  ---------------      ----- ------------  ---------------
    63     11.687899  2 O  s                236      6.453174  5 O  px         
   228     -6.059817  5 O  s                 69      5.984692  2 O  py         
    72      5.539962  2 O  py               233      5.226074  5 O  px         
    92     -4.572264  2 O  dyy               94     -4.302608  2 O  dzz        
   254      4.317125  5 O  dxx               83     -4.275138  2 O  dxx        

 Vector  328  Occ=0.000000D+00  E= 1.834143D+01
              MO Center=  3.2D-01, -2.1D-01,  4.2D-01, r^2= 3.9D+00
   Bfn.  Coefficient  Atom+Function         Bfn.  Coefficient  Atom+Function  
  ----- ------------  ---------------      ----- ------------  ---------------
     5     58.885466  1 P  s                228    -24.222346  5 O  s          
   183     23.977998  4 O  pz                72     21.718060  2 O  py         
    63    -19.268384  2 O  s                127    -18.684599  3 O  py         
   236    -18.300479  5 O  px               126     16.593249  3 O  px         
    25     14.270727  1 P  dyy               64     14.029910  2 O  s          

 Vector  329  Occ=0.000000D+00  E= 2.159628D+01
              MO Center= -2.1D-02, -1.1D-01,  1.7D-02, r^2= 3.5D+00
   Bfn.  Coefficient  Atom+Function         Bfn.  Coefficient  Atom+Function  
  ----- ------------  ---------------      ----- ------------  ---------------
     3     49.374342  1 P  s                  2     33.309524  1 P  s          
    72     10.232260  2 O  py               236     -9.471924  5 O  px         
   228     -7.528908  5 O  s                118     -7.336247  3 O  s          
   173     -7.305807  4 O  s                 53     -7.146112  1 P  fxyy       
    33     -6.735394  1 P  dzz               28     -6.470104  1 P  dxx        


   alpha - beta orbital overlaps 
   ----------------------------- 


   alpha      1      2      3      4      5      6      7      8      9     10
    beta      1      2      3      4      5      6      7      8      9     10
 overlap   1.000  1.000  1.000  0.998  0.998  1.000  0.996  0.996  1.000  0.997


   alpha     11     12     13     14     15     16     17     18     19     20
    beta     11     12     13     14     15     16     17     18     19     20
 overlap   0.999  0.986  0.989  1.000  0.999  0.995  0.982  0.991  0.989  0.854


   alpha     21     22     23     24     25     26     27     28     29     30
    beta     22     21     25     23     24     26     27     28     29     30
 overlap   0.719  0.790  0.849  0.955  0.935  1.000  1.000  0.995  0.997  0.998


   alpha     31     32     33     34     35     36     37     38     39     40
    beta     31     32     33     34     35     36     38     37     39     40
 overlap   0.994  0.985  0.991  0.997  0.997  0.987  0.794  0.849  0.929  0.995


   alpha     41     42     43     44     45     46     47     48     49     50
    beta     41     42     43     44     45     46     47     48     49     50
 overlap   0.999  0.999  0.832  0.832  0.989  0.985  0.994  0.995  0.998  0.999


   alpha     51     52     53     54     55     56     57     58     59     60
    beta     51     52     53     54     55     56     57     58     59     60
 overlap   0.999  0.768  0.768  0.999  0.981  0.980  1.000  0.998  0.997  0.999


   alpha     61     62     63     64     65     66     67     68     69     70
    beta     61     62     63     64     65     66     67     68     69     70
 overlap   0.998  0.998  0.999  0.998  0.999  0.998  0.998  0.998  0.930  0.930


   alpha     71     72     73     74     75     76     77     78     79     80
    beta     71     72     73     74     75     76     77     78     79     80
 overlap   0.999  0.998  0.999  0.999  0.999  0.998  0.997  0.996  0.985  0.983


   alpha     81     82     83     84     85     86     87     88     89     90
    beta     81     82     83     84     85     86     87     88     89     90
 overlap   0.996  0.996  0.992  0.982  0.989  0.999  0.989  0.996  0.996  0.970


   alpha     91     92     93     94     95     96     97     98     99    100
    beta     91     92     93     94     95     96     97     98    100     99
 overlap   0.969  0.993  0.963  0.963  0.999  0.999  1.000  0.728  0.704  0.804


   alpha    101    102    103    104    105    106    107    108    109    110
    beta    101    102    103    104    105    106    107    108    109    110
 overlap   0.995  0.998  0.999  0.992  0.994  0.997  1.000  0.991  0.994  0.997


   alpha    111    112    113    114    115    116    117    118    119    120
    beta    111    112    113    114    115    116    117    118    119    120
 overlap   0.999  0.974  0.975  1.000  0.997  0.997  0.999  0.999  0.999  1.000


   alpha    121    122    123    124    125    126    127    128    129    130
    beta    121    122    123    124    125    126    127    128    129    130
 overlap   0.999  1.000  0.995  0.994  0.993  0.992  0.999  0.999  0.999  1.000


   alpha    131    132    133    134    135    136    137    138    139    140
    beta    131    132    133    134    135    136    137    138    139    140
 overlap   0.994  0.994  1.000  0.998  0.999  1.000  0.994  0.995  0.999  0.999


   alpha    141    142    143    144    145    146    147    148    149    150
    beta    141    142    143    144    145    146    147    148    149    150
 overlap   0.999  0.998  0.983  0.983  0.998  0.998  0.998  0.996  0.995  0.997


   alpha    151    152    153    154    155    156    157    158    159    160
    beta    151    152    153    154    155    156    158    157    159    160
 overlap   0.975  0.933  0.949  0.998  0.985  0.992  0.983  0.993  0.892  0.892


   alpha    161    162    163    164    165    166    167    168    169    170
    beta    161    163    162    164    165    166    167    168    169    170
 overlap   0.974  0.927  0.935  0.994  0.994  0.977  0.977  0.936  0.929  0.985


   alpha    171    172    173    174    175    176    177    178    179    180
    beta    171    172    173    174    175    176    177    178    179    180
 overlap   0.994  0.993  0.998  0.998  0.997  0.997  0.997  0.998  0.993  0.993


   alpha    181    182    183    184    185    186    187    188    189    190
    beta    181    182    183    184    185    186    188    187    189    190
 overlap   0.997  0.994  0.994  0.826  0.823  0.993  0.966  0.972  0.992  0.997


   alpha    191    192    193    194    195    196    197    198    199    200
    beta    191    192    193    194    195    196    197    198    199    200
 overlap   0.995  0.999  0.999  1.000  0.998  0.932  0.930  0.995  0.992  0.995


   alpha    201    202    203    204    205    206    207    208    209    210
    beta    201    202    203    204    205    206    207    208    209    210
 overlap   0.999  1.000  0.743  0.745  0.942  0.940  0.993  0.993  0.997  1.000


   alpha    211    212    213    214    215    216    217    218    219    220
    beta    211    212    213    214    215    216    217    218    219    220
 overlap   0.999  0.999  1.000  0.998  0.995  0.994  1.000  0.999  0.998  1.000


   alpha    221    222    223    224    225    226    227    228    229    230
    beta    221    222    223    224    225    226    227    228    229    230
 overlap   1.000  1.000  1.000  1.000  1.000  1.000  1.000  1.000  1.000  1.000


   alpha    231    232    233    234    235    236    237    238    239    240
    beta    231    232    233    234    235    236    237    238    239    240
 overlap   1.000  1.000  1.000  1.000  1.000  1.000  1.000  1.000  0.996  0.997


   alpha    241    242    243    244    245    246    247    248    249    250
    beta    241    242    243    244    245    246    247    248    249    250
 overlap   0.974  0.895  0.914  0.763  0.763  0.990  0.996  1.000  1.000  1.000


   alpha    251    252    253    254    255    256    257    258    259    260
    beta    251    252    253    254    255    256    258    257    259    260
 overlap   1.000  1.000  0.999  0.895  0.894  0.999  0.947  0.946  0.937  0.935


   alpha    261    262    263    264    265    266    267    268    269    270
    beta    261    262    263    264    265    266    267    268    269    270
 overlap   0.985  0.975  0.982  0.976  0.992  0.995  0.947  0.952  0.988  0.978


   alpha    271    272    273    274    275    276    277    278    279    280
    beta    271    272    273    274    275    276    277    278    279    280
 overlap   0.970  0.980  0.978  0.994  0.992  0.986  0.911  0.931  0.968  0.853


   alpha    281    282    283    284    285    286    287    288    289    290
    beta    281    282    283    284    285    286    288    287    289    290
 overlap   0.971  0.830  0.977  0.991  0.993  0.991  0.828  0.837  0.964  0.965


   alpha    291    292    293    294    295    296    297    298    299    300
    beta    292    291    293    294    295    296    298    297    299    300
 overlap   0.811  0.817  0.998  0.994  0.994  0.990  0.870  0.881  0.999  0.999


   alpha    301    302    303    304    305    306    307    308    309    310
    beta    301    302    303    304    305    306    307    308    309    310
 overlap   1.000  1.000  1.000  1.000  1.000  1.000  1.000  1.000  1.000  1.000


   alpha    311    312    313    314    315    316    317    318    319    320
    beta    311    312    313    314    315    316    317    318    319    320
 overlap   1.000  1.000  0.995  0.994  0.998  0.997  0.999  1.000  1.000  1.000


   alpha    321    322    323    324    325    326    327    328    329
    beta    321    322    323    324    325    326    327    328    329
 overlap   1.000  1.000  1.000  1.000  1.000  1.000  1.000  1.000  1.000

     --------------------------
     Expectation value of S2:  
     --------------------------
      <S2> =      0.7540 (Exact =     0.7500)


 center of mass
 --------------
 x =  -0.01184998 y =  -0.25877011 z =   0.09671197

 moments of inertia (a.u.)
 ------------------
         400.977267654489          -6.969182532007           6.890122500165
          -6.969182532007         407.927325461463         -12.979192156103
           6.890122500165         -12.979192156103         415.091674238106

     Multipole analysis of the density
     ---------------------------------

     L   x y z        total         alpha         beta         nuclear
     -   - - -        -----         -----         ----         -------
     0   0 0 0     -0.000000    -25.000000    -24.000000     49.000000

     1   1 0 0      0.957342     -0.028951     -0.437986      1.424279
     1   0 1 0      0.451598      6.304539      6.257509    -12.110450
     1   0 0 1      0.491640     -2.568656     -3.155938      6.216233

     2   2 0 0    -24.609569    -70.400064    -66.704776    112.495271
     2   1 1 0     -0.796558     -2.123165     -0.429369      1.755975
     2   1 0 1      0.048317      1.740237      2.475040     -4.166959
     2   0 2 0    -28.158408    -69.985543    -65.552178    107.379313
     2   0 1 1      2.377446     -3.015936     -3.076885      8.470267
     2   0 0 2    -25.913182    -66.541692    -64.159138    104.787648


 Task  times  cpu:      249.5s     wall:      262.2s


                                NWChem Input Module
                                -------------------


 Summary of allocated global arrays
-----------------------------------
  No active global arrays


MA_summarize_allocated_blocks: starting scan ...
heap block 'gridpts', handle 102, address 0x1183db40:
	type of elements:		double precision
	number of elements:		33554432
	address of client space:	0x1183dbc0
	index for client space:		12125905
	total number of bytes:		268435592
MA_summarize_allocated_blocks: scan completed: 1 heap block, 0 stack blocks
MA usage statistics:

	allocation statistics:
					      heap	     stack
					      ----	     -----
	current number of blocks	         1	         0
	maximum number of blocks	        21	        53
	current total bytes		 268435592	         0
	maximum total bytes		 269190816	  40245000
	maximum total K-bytes		    269191	     40245
	maximum total M-bytes		       270	        41


                                     CITATION
                                     --------
                Please cite the following reference when publishing
                           results obtained with NWChem:

          E. Apra, E. J. Bylaska, W. A. de Jong, N. Govind, K. Kowalski,
       T. P. Straatsma, M. Valiev, H. J. J. van Dam, Y. Alexeev, J. Anchell,
       V. Anisimov, F. W. Aquino, R. Atta-Fynn, J. Autschbach, N. P. Bauman,
     J. C. Becca, D. E. Bernholdt, K. Bhaskaran-Nair, S. Bogatko, P. Borowski,
         J. Boschen, J. Brabec, A. Bruner, E. Cauet, Y. Chen, G. N. Chuev,
      C. J. Cramer, J. Daily, M. J. O. Deegan, T. H. Dunning Jr., M. Dupuis,
   K. G. Dyall, G. I. Fann, S. A. Fischer, A. Fonari, H. Fruchtl, L. Gagliardi,
      J. Garza, N. Gawande, S. Ghosh, K. Glaesemann, A. W. Gotz, J. Hammond,
       V. Helms, E. D. Hermes, K. Hirao, S. Hirata, M. Jacquelin, L. Jensen,
   B. G. Johnson, H. Jonsson, R. A. Kendall, M. Klemm, R. Kobayashi, V. Konkov,
      S. Krishnamoorthy, M. Krishnan, Z. Lin, R. D. Lins, R. J. Littlefield,
      A. J. Logsdail, K. Lopata, W. Ma, A. V. Marenich, J. Martin del Campo,
   D. Mejia-Rodriguez, J. E. Moore, J. M. Mullin, T. Nakajima, D. R. Nascimento,
    J. A. Nichols, P. J. Nichols, J. Nieplocha, A. Otero-de-la-Roza, B. Palmer,
    A. Panyala, T. Pirojsirikul, B. Peng, R. Peverati, J. Pittner, L. Pollack,
   R. M. Richard, P. Sadayappan, G. C. Schatz, W. A. Shelton, D. W. Silverstein,
   D. M. A. Smith, T. A. Soares, D. Song, M. Swart, H. L. Taylor, G. S. Thomas,
            V. Tipparaju, D. G. Truhlar, K. Tsemekhman, T. Van Voorhis,
      A. Vazquez-Mayagoitia, P. Verma, O. Villa, A. Vishnu, K. D. Vogiatzis,
        D. Wang, J. H. Weare, M. J. Williamson, T. L. Windus, K. Wolinski,
        A. T. Wong, Q. Wu, C. Yang, Q. Yu, M. Zacharias, Z. Zhang, Y. Zhao,
                                and R. J. Harrison
                        "NWChem: Past, present, and future
                         J. Chem. Phys. 152, 184102 (2020)
                               doi:10.1063/5.0004997

                                      AUTHORS
                                      -------
  E. Apra, E. J. Bylaska, N. Govind, K. Kowalski, M. Valiev, D. Mejia-Rodriguez,
       A. Kunitsa, N. P. Bauman, A. Panyala, W. A. de Jong, T. P. Straatsma,
   H. J. J. van Dam, D. Wang, T. L. Windus, J. Hammond, J. Autschbach, A. Woods,
    K. Bhaskaran-Nair, J. Brabec, K. Lopata, S. A. Fischer, S. Krishnamoorthy,
     M. Jacquelin, W. Ma, M. Klemm, O. Villa, Y. Chen, V. Anisimov, F. Aquino,
     S. Hirata, M. T. Hackler, E. Hermes, L. Jensen, J. E. Moore, J. C. Becca,
      V. Konjkov, T. Risthaus, M. Malagoli, A. Marenich, A. Otero-de-la-Roza,
        J. Mullin, P. Nichols, R. Peverati, J. Pittner, Y. Zhao, P.-D. Fan,
        A. Fonari, M. J. Williamson, R. J. Harrison, J. R. Rehr, M. Dupuis,
     D. Silverstein, D. M. A. Smith, J. Nieplocha, V. Tipparaju, M. Krishnan,
     B. E. Van Kuiken, A. Vazquez-Mayagoitia, M. Swart, Q. Wu, T. Van Voorhis,
     A. A. Auer, M. Nooijen, L. D. Crosby, E. Brown, G. Cisneros, G. I. Fann,
   H. Fruchtl, J. Garza, K. Hirao, R. A. Kendall, J. A. Nichols, K. Tsemekhman,
    K. Wolinski, J. Anchell, D. E. Bernholdt, P. Borowski, T. Clark, D. Clerc,
   H. Dachsel, M. J. O. Deegan, K. Dyall, D. Elwood, E. Glendening, M. Gutowski,
   A. C. Hess, J. Jaffe, B. G. Johnson, J. Ju, R. Kobayashi, R. Kutteh, Z. Lin,
   R. Littlefield, X. Long, B. Meng, T. Nakajima, S. Niu, L. Pollack, M. Rosing,
   K. Glaesemann, G. Sandrone, M. Stave, H. Taylor, G. Thomas, J. H. van Lenthe,
                               A. T. Wong, Z. Zhang.

 Total times  cpu:      249.6s     wall:      262.3s
