 argument  1 = 0e/mol.nwi
                                         
                                         


             Northwest Computational Chemistry Package (NWChem) 7.2.2
             --------------------------------------------------------


                    Environmental Molecular Sciences Laboratory
                       Pacific Northwest National Laboratory
                                Richland, WA 99352

                              Copyright (c) 1994-2022
                       Pacific Northwest National Laboratory
                            Battelle Memorial Institute

             NWChem is an open-source computational chemistry package
                        distributed under the terms of the
                      Educational Community License (ECL) 2.0
             A copy of the license is included with this distribution
                              in the LICENSE.TXT file

                                  ACKNOWLEDGMENT
                                  --------------

            This software and its documentation were developed at the
            EMSL at Pacific Northwest National Laboratory, a multiprogram
            national laboratory, operated for the U.S. Department of Energy
            by Battelle under Contract Number DE-AC05-76RL01830. Support
            for this work was provided by the Department of Energy Office
            of Biological and Environmental Research, Office of Basic
            Energy Sciences, and the Office of Advanced Scientific Computing.


           Job information
           ---------------

    hostname        = r395.ib.bridges2.psc.edu
    program         = nwchem
    date            = Tue Oct  1 15:27:44 2024

    compiled        = Mon_Mar_18_17:03:37_2024
    source          = /ocean/projects/pscstaff/mmadrid/nwchem-7.2.2
    nwchem branch   = 7.2.2
    nwchem revision = 74936fb9
    ga revision     = 5.8.0
    use scalapack   = F
    input           = 0e/mol.nwi
    prefix          = dft.
    data base       = .//dft.db
    status          = startup
    nproc           =       15
    time left       =     -1s



           Memory information
           ------------------

    heap     =   67108858 doubles =    512.0 Mbytes
    stack    =   67108863 doubles =    512.0 Mbytes
    global   =  134217728 doubles =   1024.0 Mbytes (distinct from heap & stack)
    total    =  268435449 doubles =   2048.0 Mbytes
    verify   = yes
    hardfail = no 


           Directory information
           ---------------------

  0 permanent = ./
  0 scratch   = /jet/home/hmt47/nwchem_scratch/




                                NWChem Input Module
                                -------------------


  library name resolved from: environment
  library file name is: </opt/packages/nwchem/nwchem7.2.2/share/nwchem/libraries/>
  


 Summary of "ao basis" -> "" (cartesian)
 ------------------------------------------------------------------------------
       Tag                 Description            Shells   Functions and Types
 ---------------- ------------------------------  ------  ---------------------
 *                        aug-cc-pVTZ                 on all atoms 


  pbe96 is a nonlocal functional; adding pw91lda local functional. 

 Scaling coordinates for geometry "geometry" by  1.889725989
 (inverse scale =  0.529177249)



                             Geometry "geometry" -> ""
                             -------------------------

 Output coordinates in angstroms (scale by  1.889725989 to convert to a.u.)

  No.       Tag          Charge          X              Y              Z
 ---- ---------------- ---------- -------------- -------------- --------------
    1 O                    8.0000    -0.02801146    -0.03683955     0.04941666
    2 O                    8.0000     1.33865259     2.05896516    -2.51310794
    3 O                    8.0000     0.99191249     1.95096979     0.29749749
    4 O                    8.0000     0.23420355     0.05487761    -2.61511540
    5 C                    6.0000     0.60481711     1.07905954    -0.46265674
    6 C                    6.0000     0.74090265     1.05795536    -2.06037025
    7 H                    1.0000    -0.02848094     0.13190609     1.01472018

      Atomic Mass 
      ----------- 

      O                 15.994910
      C                 12.000000
      H                  1.007825


 Effective nuclear repulsion energy (a.u.)     217.5109498967

            Nuclear Dipole moment (a.u.) 
            ----------------------------
        X                 Y               Z
 ---------------- ---------------- ----------------
    53.5546360573    85.3736241598   -98.9723488283


            XYZ format geometry
            -------------------
     7
 geometry
 O                    -0.02801146    -0.03683955     0.04941666
 O                     1.33865259     2.05896516    -2.51310794
 O                     0.99191249     1.95096979     0.29749749
 O                     0.23420355     0.05487761    -2.61511540
 C                     0.60481711     1.07905954    -0.46265674
 C                     0.74090265     1.05795536    -2.06037025
 H                    -0.02848094     0.13190609     1.01472018

 ==============================================================================
                                internuclear distances
 ------------------------------------------------------------------------------
       center one      |      center two      | atomic units |  angstroms
 ------------------------------------------------------------------------------
    5 C                |   1 O                |     2.61023  |     1.38128
    5 C                |   3 O                |     2.30508  |     1.21980
    6 C                |   2 O                |     2.36352  |     1.25072
    6 C                |   4 O                |     2.36831  |     1.25326
    6 C                |   5 C                |     3.03044  |     1.60364
    7 H                |   1 O                |     1.85182  |     0.97994
 ------------------------------------------------------------------------------
                         number of included internuclear distances:          6
 ==============================================================================



 ==============================================================================
                                 internuclear angles
 ------------------------------------------------------------------------------
        center 1       |       center 2       |       center 3       |  degrees
 ------------------------------------------------------------------------------
    5 C                |   1 O                |   7 H                |   103.08
    1 O                |   5 C                |   3 O                |   119.46
    1 O                |   5 C                |   6 C                |   113.43
    3 O                |   5 C                |   6 C                |   127.11
    2 O                |   6 C                |   4 O                |   132.34
    2 O                |   6 C                |   5 C                |   113.00
    4 O                |   6 C                |   5 C                |   114.66
 ------------------------------------------------------------------------------
                            number of included internuclear angles:          7
 ==============================================================================




                                 NWChem DFT Module
                                 -----------------


                      Basis "ao basis" -> "ao basis" (cartesian)
                      -----
  O (Oxygen)
  ----------
            Exponent  Coefficients 
       -------------- ---------------------------------------------------------
  1 S  1.53300000E+04  0.000508
  1 S  2.29900000E+03  0.003929
  1 S  5.22400000E+02  0.020243
  1 S  1.47300000E+02  0.079181
  1 S  4.75500000E+01  0.230687
  1 S  1.67600000E+01  0.433118
  1 S  6.20700000E+00  0.350260
  1 S  6.88200000E-01 -0.008154

  2 S  1.53300000E+04 -0.000115
  2 S  2.29900000E+03 -0.000895
  2 S  5.22400000E+02 -0.004636
  2 S  1.47300000E+02 -0.018724
  2 S  4.75500000E+01 -0.058463
  2 S  1.67600000E+01 -0.136463
  2 S  6.20700000E+00 -0.175740
  2 S  6.88200000E-01  0.603418

  3 S  1.75200000E+00  1.000000

  4 S  2.38400000E-01  1.000000

  5 S  7.37600000E-02  1.000000

  6 P  3.44600000E+01  0.015928
  6 P  7.74900000E+00  0.099740
  6 P  2.28000000E+00  0.310492

  7 P  7.15600000E-01  1.000000

  8 P  2.14000000E-01  1.000000

  9 P  5.97400000E-02  1.000000

 10 D  2.31400000E+00  1.000000

 11 D  6.45000000E-01  1.000000

 12 D  2.14000000E-01  1.000000

 13 F  1.42800000E+00  1.000000

 14 F  5.00000000E-01  1.000000

  C (Carbon)
  ----------
            Exponent  Coefficients 
       -------------- ---------------------------------------------------------
  1 S  8.23600000E+03  0.000531
  1 S  1.23500000E+03  0.004108
  1 S  2.80800000E+02  0.021087
  1 S  7.92700000E+01  0.081853
  1 S  2.55900000E+01  0.234817
  1 S  8.99700000E+00  0.434401
  1 S  3.31900000E+00  0.346129
  1 S  3.64300000E-01 -0.008983

  2 S  8.23600000E+03 -0.000113
  2 S  1.23500000E+03 -0.000878
  2 S  2.80800000E+02 -0.004540
  2 S  7.92700000E+01 -0.018133
  2 S  2.55900000E+01 -0.055760
  2 S  8.99700000E+00 -0.126895
  2 S  3.31900000E+00 -0.170352
  2 S  3.64300000E-01  0.598684

  3 S  9.05900000E-01  1.000000

  4 S  1.28500000E-01  1.000000

  5 S  4.40200000E-02  1.000000

  6 P  1.87100000E+01  0.014031
  6 P  4.13300000E+00  0.086866
  6 P  1.20000000E+00  0.290216

  7 P  3.82700000E-01  1.000000

  8 P  1.20900000E-01  1.000000

  9 P  3.56900000E-02  1.000000

 10 D  1.09700000E+00  1.000000

 11 D  3.18000000E-01  1.000000

 12 D  1.00000000E-01  1.000000

 13 F  7.61000000E-01  1.000000

 14 F  2.68000000E-01  1.000000

  H (Hydrogen)
  ------------
            Exponent  Coefficients 
       -------------- ---------------------------------------------------------
  1 S  3.38700000E+01  0.006068
  1 S  5.09500000E+00  0.045308
  1 S  1.15900000E+00  0.202822

  2 S  3.25800000E-01  1.000000

  3 S  1.02700000E-01  1.000000

  4 S  2.52600000E-02  1.000000

  5 P  1.40700000E+00  1.000000

  6 P  3.88000000E-01  1.000000

  7 P  1.02000000E-01  1.000000

  8 D  1.05700000E+00  1.000000

  9 D  2.47000000E-01  1.000000



 Summary of "ao basis" -> "ao basis" (cartesian)
 ------------------------------------------------------------------------------
       Tag                 Description            Shells   Functions and Types
 ---------------- ------------------------------  ------  ---------------------
 O                        aug-cc-pVTZ               14       55   5s4p3d2f
 C                        aug-cc-pVTZ               14       55   5s4p3d2f
 H                        aug-cc-pVTZ                9       25   4s3p2d




 Summary of "ao basis" -> "ao basis" (cartesian)
 ------------------------------------------------------------------------------
       Tag                 Description            Shells   Functions and Types
 ---------------- ------------------------------  ------  ---------------------
 O                        aug-cc-pVTZ               14       55   5s4p3d2f
 C                        aug-cc-pVTZ               14       55   5s4p3d2f
 H                        aug-cc-pVTZ                9       25   4s3p2d


  Caching 1-el integrals 

            General Information
            -------------------
          SCF calculation type: DFT
          Wavefunction type:  spin polarized.
          No. of atoms     :     7
          No. of electrons :    45
           Alpha electrons :    23
            Beta electrons :    22
          Charge           :     0
          Spin multiplicity:     2
          Use of symmetry is: off; symmetry adaption is: off
          Maximum number of iterations: 200
          AO basis - number of functions:   355
                     number of shells:    93
          Convergence on energy requested:  1.00D-06
          Convergence on density requested:  1.00D-05
          Convergence on gradient requested:  5.00D-04

              XC Information
              --------------
          PerdewBurkeErnzerhof Exchange Functional  1.000          
            Perdew 1991 LDA Correlation Functional  1.000 local    
           PerdewBurkeErnz. Correlation Functional  1.000 non-local

             Grid Information
             ----------------
          Grid used for XC integration:  medium    
          Radial quadrature: Mura-Knowles        
          Angular quadrature: Lebedev. 
          Tag              B.-S. Rad. Rad. Pts. Rad. Cut. Ang. Pts.
          ---              ---------- --------- --------- ---------
          O                   0.60       49          15.0       434
          C                   0.70       49          15.0       434
          H                   0.35       45          14.0       434
          Grid pruning is: on 
          Number of quadrature shells:   339
          Spatial weights used:  Erf1

          Convergence Information
          -----------------------
          Convergence aids based upon iterative change in 
          total energy or number of iterations. 
          Levelshifting, if invoked, occurs when the 
          HOMO/LUMO gap drops below (HL_TOL):  1.00D-02
          DIIS, if invoked, will attempt to extrapolate 
          using up to (NFOCK): 10 stored Fock matrices.

                    Damping(40%)  Levelshifting(0.0)       DIIS
                  --------------- ------------------- ---------------
          dE  on:    start            0.00D+00            start   
          dE off:  200 iters          0.00D+00          200 iters 


      Screening Tolerance Information
      -------------------------------
          Density screening/tol_rho:  1.00D-10
          AO Gaussian exp screening on grid/accAOfunc:  14
          CD Gaussian exp screening on grid/accCDfunc:  20
          XC Gaussian exp screening on grid/accXCfunc:  20
          Schwarz screening/accCoul:  1.00D-08


 Forcing the number of linearly dependent vectors to be  0

      Superposition of Atomic Density Guess
      -------------------------------------

 Sum of atomic energies:        -374.96619291
   Time after variat. SCF:      0.5
   Time prior to 1st pass:      0.5

 Grid_pts file          = /jet/home/hmt47/nwchem_scratch//dft.gridpts.00
 Record size in doubles =  12289        No. of grid_pts per rec  =   3070
 Max. records in memory =      5        Max. recs in file   =  67550051


           Memory utilization after 1st SCF pass: 
           Heap Space remaining (MW):       33.49            33485818
          Stack Space remaining (MW):       67.11            67105852

   convergence    iter        energy       DeltaE   RMS-Dens  Diis-err    time
 ---------------- ----- ----------------- --------- --------- ---------  ------
 d=40,ls=0.0,diis     1   -378.3524110538 -5.96D+02  4.19D-03  1.44D+01     1.6
                                                     4.10D-03  1.32D+01
 d=40,ls=0.0,diis     2   -377.7568044492  5.96D-01  3.71D-03  2.39D+00     8.2
                                                     3.87D-03  2.19D+00
 d=40,ls=0.0,diis     3   -376.7580865780  9.99D-01  2.16D-03  1.38D+00    14.6
                                                     2.28D-03  1.32D+00
 d=40,ls=0.0,diis     4   -377.2579072826 -5.00D-01  8.94D-04  3.55D-01    20.9
                                                     1.16D-03  3.34D-01
 d=40,ls=0.0,diis     5   -377.3800243140 -1.22D-01  4.64D-04  5.99D-02    27.3
                                                     7.63D-04  5.44D-02
  Resetting Diis
 d=40,ls=0.0,diis     6   -377.3991015800 -1.91D-02  2.08D-04  2.93D-02    33.6
                                                     1.16D-03  3.07D-02
 d=40,ls=0.0,diis     7   -377.4095628619 -1.05D-02  6.53D-04  2.38D-02    40.0
                                                     1.69D-03  1.94D-02
 d=40,ls=0.0,diis     8   -377.2999613615  1.10D-01  3.43D-04  2.78D-01    46.4
                                                     1.15D-03  2.22D-01
 d=40,ls=0.0,diis     9   -377.3939726486 -9.40D-02  1.92D-04  5.87D-02    52.8
                                                     5.03D-04  5.44D-02
 d=40,ls=0.0,diis    10   -377.4170857704 -2.31D-02  9.82D-05  1.39D-02    59.2
                                                     5.29D-04  1.29D-02
 d=40,ls=0.0,diis    11   -377.4150471531  2.04D-03  5.02D-05  2.24D-02    65.5
                                                     3.17D-04  2.03D-02
 d=40,ls=0.0,diis    12   -377.4230413787 -7.99D-03  5.23D-05  6.29D-03    71.8
                                                     2.45D-04  5.77D-03
 d=40,ls=0.0,diis    13   -377.4211867366  1.85D-03  3.45D-05  1.13D-02    78.2
                                                     1.53D-04  1.05D-02
 d=40,ls=0.0,diis    14   -377.4240434205 -2.86D-03  2.12D-05  5.29D-03    84.8
                                                     1.14D-04  4.94D-03
 d=40,ls=0.0,diis    15   -377.4254313076 -1.39D-03  1.59D-05  2.37D-03    91.1
                                                     1.28D-04  2.22D-03
 d=40,ls=0.0,diis    16   -377.4262885772 -8.57D-04  1.12D-05  5.47D-04    97.4
                                                     1.46D-04  5.15D-04
 d=40,ls=0.0,diis    17   -377.4265410984 -2.53D-04  4.20D-06  2.11D-05   103.8
                                                     1.94D-05  2.01D-05
 d=40,ls=0.0,diis    18   -377.4265321823  8.92D-06  2.21D-06  6.41D-05   110.1
                                                     2.67D-05  5.86D-05
 d=40,ls=0.0,diis    19   -377.4265593797 -2.72D-05  8.08D-07  1.33D-05   116.5
                                                     6.50D-06  1.21D-05
 d=40,ls=0.0,diis    20   -377.4265641172 -4.74D-06  5.55D-07  6.66D-06   122.8
                                                     7.45D-06  6.07D-06
 d=40,ls=0.0,diis    21   -377.4265670848 -2.97D-06  2.80D-07  1.62D-06   129.1
                                                     4.01D-06  1.47D-06
 d=40,ls=0.0,diis    22   -377.4265679571 -8.72D-07  1.49D-07  3.18D-07   135.5
                                                     1.59D-06  2.91D-07


         Total DFT energy =     -377.426567957129
      One electron energy =     -947.955669598096
           Coulomb energy =      398.007107761622
    Exchange-Corr. energy =      -44.988956017323
 Nuclear repulsion energy =      217.510949896668

 Numeric. integr. density =       45.000000245646

     Total iterative time =    135.0s



                    DFT Final Alpha Molecular Orbital Analysis
                    ------------------------------------------

 Vector    1  Occ=1.000000D+00  E=-1.887010D+01
              MO Center= -2.8D-02, -3.7D-02,  4.9D-02, r^2= 1.5D-02
   Bfn.  Coefficient  Atom+Function         Bfn.  Coefficient  Atom+Function  
  ----- ------------  ---------------      ----- ------------  ---------------
     1      0.983205  1 O  s                  4     -0.075145  1 O  s          
     3      0.066046  1 O  s                274     -0.052443  5 C  fyzz       
   114      0.051267  3 O  s                279     -0.047094  6 C  s          
   234     -0.043315  5 C  pz               233      0.041361  5 C  py         
   289     -0.038622  6 C  pz               230     -0.033815  5 C  py         

 Vector    2  Occ=1.000000D+00  E=-1.884302D+01
              MO Center=  9.9D-01,  2.0D+00,  3.0D-01, r^2= 1.5D-02
   Bfn.  Coefficient  Atom+Function         Bfn.  Coefficient  Atom+Function  
  ----- ------------  ---------------      ----- ------------  ---------------
   111      0.983760  3 O  s                113      0.068905  3 O  s          
   254     -0.064713  5 C  dyz              234     -0.051987  5 C  pz         
   270     -0.048326  5 C  fxyz             115      0.042341  3 O  s          
   224     -0.041796  5 C  s                273     -0.040785  5 C  fyyz       
   289     -0.037459  6 C  pz               252     -0.032427  5 C  dxz        

 Vector    3  Occ=1.000000D+00  E=-1.882454D+01
              MO Center=  2.3D-01,  5.5D-02, -2.6D+00, r^2= 1.5D-02
   Bfn.  Coefficient  Atom+Function         Bfn.  Coefficient  Atom+Function  
  ----- ------------  ---------------      ----- ------------  ---------------
   166      0.983087  4 O  s                168      0.068535  4 O  s          
    59      0.063349  2 O  s                325      0.053945  6 C  fxyz       
   329     -0.053036  6 C  fyzz             289      0.047316  6 C  pz         
   279     -0.046684  6 C  s                169     -0.044193  4 O  s          
   328      0.041919  6 C  fyyz             274      0.041497  5 C  fyzz       

 Vector    4  Occ=1.000000D+00  E=-1.879068D+01
              MO Center=  1.3D+00,  2.1D+00, -2.5D+00, r^2= 1.5D-02
   Bfn.  Coefficient  Atom+Function         Bfn.  Coefficient  Atom+Function  
  ----- ------------  ---------------      ----- ------------  ---------------
    56      0.983178  2 O  s                169      0.076175  4 O  s          
   329      0.069794  6 C  fyzz              58      0.067943  2 O  s          
    59     -0.058480  2 O  s                274     -0.048721  5 C  fyzz       
   279     -0.044956  6 C  s                328      0.044944  6 C  fyyz       
   289      0.043436  6 C  pz               325      0.042794  6 C  fxyz       

 Vector    5  Occ=1.000000D+00  E=-1.010128D+01
              MO Center=  6.0D-01,  1.1D+00, -4.6D-01, r^2= 2.8D-02
   Bfn.  Coefficient  Atom+Function         Bfn.  Coefficient  Atom+Function  
  ----- ------------  ---------------      ----- ------------  ---------------
   221      1.012611  5 C  s                114     -0.150930  3 O  s          
   222      0.085183  5 C  s                223      0.069419  5 C  s          
    59      0.061844  2 O  s                274      0.056222  5 C  fyzz       
   273      0.053334  5 C  fyyz             169     -0.052853  4 O  s          
   230      0.052101  5 C  py               123      0.048864  3 O  py         

 Vector    6  Occ=1.000000D+00  E=-1.005590D+01
              MO Center=  7.4D-01,  1.1D+00, -2.1D+00, r^2= 2.8D-02
   Bfn.  Coefficient  Atom+Function         Bfn.  Coefficient  Atom+Function  
  ----- ------------  ---------------      ----- ------------  ---------------
   276      1.012475  6 C  s                224      0.097621  5 C  s          
   279     -0.093128  6 C  s                277      0.085023  6 C  s          
   278      0.069259  6 C  s                169     -0.064176  4 O  s          
    59     -0.046243  2 O  s                234     -0.037225  5 C  pz         
   308     -0.035856  6 C  dyy              302      0.035427  6 C  dyy        

 Vector    7  Occ=1.000000D+00  E=-1.088371D+00
              MO Center=  4.7D-01,  8.9D-01, -3.7D-02, r^2= 1.4D+00
   Bfn.  Coefficient  Atom+Function         Bfn.  Coefficient  Atom+Function  
  ----- ------------  ---------------      ----- ------------  ---------------
     2      0.306312  1 O  s                112      0.268480  3 O  s          
   222      0.236337  5 C  s                  4      0.158359  1 O  s          
   114      0.102244  3 O  s                  3      0.084588  1 O  s          
   113      0.075067  3 O  s                277      0.069080  6 C  s          
   223      0.068437  5 C  s                224      0.065679  5 C  s          

 Vector    8  Occ=1.000000D+00  E=-1.032445D+00
              MO Center=  6.2D-01,  8.0D-01, -2.3D+00, r^2= 1.4D+00
   Bfn.  Coefficient  Atom+Function         Bfn.  Coefficient  Atom+Function  
  ----- ------------  ---------------      ----- ------------  ---------------
   167      0.342166  4 O  s                277      0.261909  6 C  s          
    57      0.220957  2 O  s                169      0.196691  4 O  s          
    59      0.106047  2 O  s                224      0.104627  5 C  s          
   170      0.097412  4 O  s                168      0.096570  4 O  s          
    60      0.088931  2 O  s                278      0.075656  6 C  s          

 Vector    9  Occ=1.000000D+00  E=-1.004502D+00
              MO Center=  5.1D-01,  9.9D-01,  3.3D-02, r^2= 1.5D+00
   Bfn.  Coefficient  Atom+Function         Bfn.  Coefficient  Atom+Function  
  ----- ------------  ---------------      ----- ------------  ---------------
   112     -0.337300  3 O  s                  2      0.333586  1 O  s          
     4      0.226860  1 O  s                114     -0.199553  3 O  s          
   227     -0.116531  5 C  py               113     -0.094559  3 O  s          
     3      0.091544  1 O  s                 59     -0.074109  2 O  s          
   222     -0.070283  5 C  s                230     -0.069567  5 C  py         

 Vector   10  Occ=1.000000D+00  E=-9.560479D-01
              MO Center=  9.0D-01,  1.3D+00, -2.3D+00, r^2= 1.4D+00
   Bfn.  Coefficient  Atom+Function         Bfn.  Coefficient  Atom+Function  
  ----- ------------  ---------------      ----- ------------  ---------------
    57      0.374154  2 O  s                167     -0.282888  4 O  s          
    59      0.276282  2 O  s                169     -0.226366  4 O  s          
   282      0.141751  6 C  py                58      0.103752  2 O  s          
   281      0.079071  6 C  px               168     -0.077612  4 O  s          
   112     -0.068455  3 O  s                285      0.065106  6 C  py         

 Vector   11  Occ=1.000000D+00  E=-6.764381D-01
              MO Center=  4.4D-01,  7.2D-01, -7.4D-01, r^2= 2.0D+00
   Bfn.  Coefficient  Atom+Function         Bfn.  Coefficient  Atom+Function  
  ----- ------------  ---------------      ----- ------------  ---------------
   222      0.275071  5 C  s                  8     -0.152072  1 O  pz         
    11     -0.139303  1 O  pz               224      0.132236  5 C  s          
   277      0.130454  6 C  s                283      0.129480  6 C  pz         
   112     -0.124842  3 O  s                228     -0.113163  5 C  pz         
   167     -0.112364  4 O  s                286      0.109015  6 C  pz         

 Vector   12  Occ=1.000000D+00  E=-5.582218D-01
              MO Center=  4.0D-01,  6.6D-01, -5.9D-01, r^2= 2.5D+00
   Bfn.  Coefficient  Atom+Function         Bfn.  Coefficient  Atom+Function  
  ----- ------------  ---------------      ----- ------------  ---------------
     8      0.177909  1 O  pz               277      0.175716  6 C  s          
    11      0.167712  1 O  pz               228     -0.145201  5 C  pz         
     7     -0.132593  1 O  py                10     -0.132908  1 O  py         
   332      0.126350  7 H  s                 57     -0.125152  2 O  s          
   227      0.115573  5 C  py               231     -0.108872  5 C  pz         

 Vector   13  Occ=1.000000D+00  E=-5.016870D-01
              MO Center=  7.2D-01,  1.4D+00,  1.6D-01, r^2= 2.0D+00
   Bfn.  Coefficient  Atom+Function         Bfn.  Coefficient  Atom+Function  
  ----- ------------  ---------------      ----- ------------  ---------------
   112      0.239468  3 O  s                114      0.200660  3 O  s          
   117      0.191536  3 O  py               120      0.180934  3 O  py         
   222     -0.172564  5 C  s                  4      0.166890  1 O  s          
   118      0.134665  3 O  pz                 8     -0.132250  1 O  pz         
   121      0.128308  3 O  pz                11     -0.126450  1 O  pz         

 Vector   14  Occ=1.000000D+00  E=-4.820113D-01
              MO Center=  4.8D-01,  5.8D-01, -2.1D+00, r^2= 2.8D+00
   Bfn.  Coefficient  Atom+Function         Bfn.  Coefficient  Atom+Function  
  ----- ------------  ---------------      ----- ------------  ---------------
   167      0.204222  4 O  s                277     -0.203455  6 C  s          
   172     -0.197884  4 O  py               175     -0.188412  4 O  py         
   169      0.182673  4 O  s                 59      0.129836  2 O  s          
    57      0.117335  2 O  s                283      0.115064  6 C  pz         
    62      0.104143  2 O  py               171     -0.104479  4 O  px         

 Vector   15  Occ=1.000000D+00  E=-4.744131D-01
              MO Center=  5.9D-01,  1.0D+00, -5.7D-01, r^2= 2.2D+00
   Bfn.  Coefficient  Atom+Function         Bfn.  Coefficient  Atom+Function  
  ----- ------------  ---------------      ----- ------------  ---------------
   226      0.187332  5 C  px               229      0.163451  5 C  px         
   116      0.158657  3 O  px               119      0.155973  3 O  px         
     6      0.142302  1 O  px                 9      0.142056  1 O  px         
   281      0.107945  6 C  px               227     -0.098082  5 C  py         
   284      0.094189  6 C  px               122      0.091129  3 O  px         

 Vector   16  Occ=1.000000D+00  E=-4.383104D-01
              MO Center=  9.9D-01,  1.4D+00, -2.5D+00, r^2= 2.1D+00
   Bfn.  Coefficient  Atom+Function         Bfn.  Coefficient  Atom+Function  
  ----- ------------  ---------------      ----- ------------  ---------------
    62      0.200392  2 O  py                57      0.198575  2 O  s          
    59      0.196104  2 O  s                 65      0.193871  2 O  py         
   176      0.175235  4 O  pz               173      0.171160  4 O  pz         
   282     -0.166115  6 C  py                61      0.121921  2 O  px         
    64      0.118181  2 O  px               285     -0.116733  6 C  py         

 Vector   17  Occ=1.000000D+00  E=-4.300693D-01
              MO Center=  3.8D-01,  6.6D-01, -4.3D-01, r^2= 3.0D+00
   Bfn.  Coefficient  Atom+Function         Bfn.  Coefficient  Atom+Function  
  ----- ------------  ---------------      ----- ------------  ---------------
     4      0.215232  1 O  s                121     -0.181876  3 O  pz         
   118     -0.179374  3 O  pz                 7     -0.162109  1 O  py         
    10     -0.156769  1 O  py                 2      0.152193  1 O  s          
     8     -0.147150  1 O  pz               114     -0.140648  3 O  s          
    11     -0.135192  1 O  pz               332     -0.134711  7 H  s          

 Vector   18  Occ=1.000000D+00  E=-4.157076D-01
              MO Center=  6.6D-01,  9.5D-01, -1.8D+00, r^2= 2.6D+00
   Bfn.  Coefficient  Atom+Function         Bfn.  Coefficient  Atom+Function  
  ----- ------------  ---------------      ----- ------------  ---------------
   171      0.176944  4 O  px               281      0.177072  6 C  px         
   174      0.175740  4 O  px               284      0.147957  6 C  px         
    61      0.140133  2 O  px                64      0.137692  2 O  px         
   116     -0.107549  3 O  px               119     -0.107073  3 O  px         
   177      0.105649  4 O  px                 6     -0.100840  1 O  px         

 Vector   19  Occ=1.000000D+00  E=-3.521203D-01
              MO Center=  6.2D-01,  1.1D+00, -8.8D-01, r^2= 3.5D+00
   Bfn.  Coefficient  Atom+Function         Bfn.  Coefficient  Atom+Function  
  ----- ------------  ---------------      ----- ------------  ---------------
   117      0.203224  3 O  py               120      0.203605  3 O  py         
   176     -0.192470  4 O  pz               173     -0.187184  4 O  pz         
   121     -0.159761  3 O  pz               118     -0.155267  3 O  pz         
   179     -0.125064  4 O  pz               124     -0.119192  3 O  pz         
   123      0.105549  3 O  py                10      0.104580  1 O  py         

 Vector   20  Occ=1.000000D+00  E=-3.505970D-01
              MO Center=  4.0D-01,  7.6D-01,  9.3D-02, r^2= 1.9D+00
   Bfn.  Coefficient  Atom+Function         Bfn.  Coefficient  Atom+Function  
  ----- ------------  ---------------      ----- ------------  ---------------
     9      0.263065  1 O  px                 6      0.259825  1 O  px         
   119     -0.233033  3 O  px               116     -0.230807  3 O  px         
    12      0.167490  1 O  px                10     -0.158092  1 O  py         
     7     -0.156066  1 O  py               122     -0.136241  3 O  px         
    13     -0.100838  1 O  py               120      0.090036  3 O  py         

 Vector   21  Occ=1.000000D+00  E=-3.006243D-01
              MO Center=  8.2D-01,  1.1D+00, -2.5D+00, r^2= 2.0D+00
   Bfn.  Coefficient  Atom+Function         Bfn.  Coefficient  Atom+Function  
  ----- ------------  ---------------      ----- ------------  ---------------
    64      0.251028  2 O  px                61      0.248666  2 O  px         
   174     -0.238322  4 O  px               171     -0.234495  4 O  px         
    67      0.153331  2 O  px               177     -0.146750  4 O  px         
    65     -0.136992  2 O  py                62     -0.135787  2 O  py         
   175      0.134953  4 O  py               172      0.132766  4 O  py         

 Vector   22  Occ=1.000000D+00  E=-2.988510D-01
              MO Center=  5.7D-01,  8.9D-01, -1.3D+00, r^2= 3.5D+00
   Bfn.  Coefficient  Atom+Function         Bfn.  Coefficient  Atom+Function  
  ----- ------------  ---------------      ----- ------------  ---------------
   176      0.261335  4 O  pz               173      0.256285  4 O  pz         
   121     -0.199641  3 O  pz               118     -0.194160  3 O  pz         
   179      0.160043  4 O  pz               124     -0.115509  3 O  pz         
    10      0.113968  1 O  py                 7      0.109255  1 O  py         
   120      0.108872  3 O  py               117      0.107028  3 O  py         

 Vector   23  Occ=1.000000D+00  E=-2.815863D-01
              MO Center=  1.1D+00,  1.7D+00, -2.3D+00, r^2= 1.6D+00
   Bfn.  Coefficient  Atom+Function         Bfn.  Coefficient  Atom+Function  
  ----- ------------  ---------------      ----- ------------  ---------------
    66      0.333442  2 O  pz                63      0.330773  2 O  pz         
    69      0.220018  2 O  pz                65      0.136198  2 O  py         
    62      0.132272  2 O  py               175      0.122014  4 O  py         
   172      0.115808  4 O  py               309      0.096437  6 C  dyz        
   228      0.087193  5 C  pz               231      0.086824  5 C  pz         

 Vector   24  Occ=0.000000D+00  E=-1.453674D-01
              MO Center=  6.8D-01,  1.2D+00, -8.3D-01, r^2= 2.5D+00
   Bfn.  Coefficient  Atom+Function         Bfn.  Coefficient  Atom+Function  
  ----- ------------  ---------------      ----- ------------  ---------------
   229      0.254052  5 C  px               226      0.236987  5 C  px         
   232      0.211834  5 C  px               119     -0.187771  3 O  px         
   116     -0.179934  3 O  px               122     -0.162915  3 O  px         
   230     -0.129496  5 C  py                 9     -0.124755  1 O  px         
   227     -0.124698  5 C  py                64     -0.123917  2 O  px         

 Vector   25  Occ=0.000000D+00  E=-4.740829D-02
              MO Center= -3.4D-02,  1.8D-01,  1.3D+00, r^2= 5.8D+00
   Bfn.  Coefficient  Atom+Function         Bfn.  Coefficient  Atom+Function  
  ----- ------------  ---------------      ----- ------------  ---------------
   334      0.848418  7 H  s                  5      0.684649  1 O  s          
   225     -0.395240  5 C  s                224     -0.321135  5 C  s          
   115      0.249971  3 O  s                  4     -0.243317  1 O  s          
   343      0.242381  7 H  pz               236      0.166992  5 C  py         
   332      0.166788  7 H  s                254     -0.164084  5 C  dyz        

 Vector   26  Occ=0.000000D+00  E=-1.224171D-02
              MO Center=  7.3D-01,  1.1D+00, -1.6D+00, r^2= 2.4D+00
   Bfn.  Coefficient  Atom+Function         Bfn.  Coefficient  Atom+Function  
  ----- ------------  ---------------      ----- ------------  ---------------
   287      0.343263  6 C  px               284      0.312506  6 C  px         
   281      0.282339  6 C  px               232     -0.237161  5 C  px         
   229     -0.231715  5 C  px               226     -0.208659  5 C  px         
    67     -0.187640  2 O  px               177     -0.187199  4 O  px         
   288     -0.186199  6 C  py               285     -0.174306  6 C  py         

 Vector   27  Occ=0.000000D+00  E= 2.943278D-03
              MO Center=  7.0D-01,  1.0D+00, -2.0D+00, r^2= 1.1D+01
   Bfn.  Coefficient  Atom+Function         Bfn.  Coefficient  Atom+Function  
  ----- ------------  ---------------      ----- ------------  ---------------
   225      8.177365  5 C  s                280     -5.502480  6 C  s          
   279      3.051380  6 C  s                237     -2.485902  5 C  pz         
   115     -1.888466  3 O  s                292     -1.552695  6 C  pz         
   333      1.300060  7 H  s                234      1.291198  5 C  pz         
   255     -1.232145  5 C  dzz                5     -1.223876  1 O  s          

 Vector   28  Occ=0.000000D+00  E= 2.237408D-02
              MO Center=  4.7D-01,  9.2D-01,  1.9D-03, r^2= 1.6D+01
   Bfn.  Coefficient  Atom+Function         Bfn.  Coefficient  Atom+Function  
  ----- ------------  ---------------      ----- ------------  ---------------
   280     10.586163  6 C  s                225     -6.486500  5 C  s          
   237      3.959366  5 C  pz               224      2.678703  5 C  s          
    60     -1.999052  2 O  s                292      1.951333  6 C  pz         
   279     -1.763999  6 C  s                289     -1.558106  6 C  pz         
   115     -1.403467  3 O  s                334     -1.350512  7 H  s          

 Vector   29  Occ=0.000000D+00  E= 2.478146D-02
              MO Center=  5.3D-01,  9.2D-01, -4.0D-01, r^2= 1.2D+01
   Bfn.  Coefficient  Atom+Function         Bfn.  Coefficient  Atom+Function  
  ----- ------------  ---------------      ----- ------------  ---------------
   235      1.266295  5 C  px               236     -0.601496  5 C  py         
   125     -0.275698  3 O  px               341      0.168994  7 H  px         
   287     -0.168048  6 C  px                15     -0.158975  1 O  px         
   307     -0.145114  6 C  dxz              237      0.133631  5 C  pz         
   288      0.126584  6 C  py               126      0.119650  3 O  py         

 Vector   30  Occ=0.000000D+00  E= 3.994855D-02
              MO Center=  6.1D-01,  8.6D-01, -1.8D+00, r^2= 1.5D+01
   Bfn.  Coefficient  Atom+Function         Bfn.  Coefficient  Atom+Function  
  ----- ------------  ---------------      ----- ------------  ---------------
   280      4.369557  6 C  s                292      2.661522  6 C  pz         
     5     -2.626323  1 O  s                224      2.398454  5 C  s          
   333      1.442804  7 H  s                225     -1.232027  5 C  s          
   334     -1.155439  7 H  s                236     -0.936423  5 C  py         
   310     -0.850797  6 C  dzz              254      0.771311  5 C  dyz        

 Vector   31  Occ=0.000000D+00  E= 4.408881D-02
              MO Center= -3.2D-01, -2.6D-01,  2.0D+00, r^2= 1.6D+01
   Bfn.  Coefficient  Atom+Function         Bfn.  Coefficient  Atom+Function  
  ----- ------------  ---------------      ----- ------------  ---------------
   280      6.094666  6 C  s                334     -4.003770  7 H  s          
   237      3.128804  5 C  pz               279      2.250555  6 C  s          
   225      2.154038  5 C  s                236     -1.786966  5 C  py         
     5     -1.694451  1 O  s                 60     -1.589308  2 O  s          
   170     -1.300821  4 O  s                234      1.290564  5 C  pz         

 Vector   32  Occ=0.000000D+00  E= 5.775253D-02
              MO Center=  7.3D-01,  1.1D+00, -1.6D+00, r^2= 1.9D+01
   Bfn.  Coefficient  Atom+Function         Bfn.  Coefficient  Atom+Function  
  ----- ------------  ---------------      ----- ------------  ---------------
   280      7.359328  6 C  s                225     -5.429854  5 C  s          
   170     -4.163459  4 O  s                237      3.103929  5 C  pz         
   291     -2.844193  6 C  py               236      1.714167  5 C  py         
   290     -1.546296  6 C  px               333      1.411979  7 H  s          
    60      1.082383  2 O  s                309      0.923147  6 C  dyz        

 Vector   33  Occ=0.000000D+00  E= 5.999227D-02
              MO Center=  6.6D-01,  9.3D-01, -1.9D+00, r^2= 1.6D+01
   Bfn.  Coefficient  Atom+Function         Bfn.  Coefficient  Atom+Function  
  ----- ------------  ---------------      ----- ------------  ---------------
   290      2.794540  6 C  px               235     -2.283266  5 C  px         
   291     -1.417625  6 C  py               236      1.175228  5 C  py         
    70     -0.455164  2 O  px               180     -0.415784  4 O  px         
   125      0.363228  3 O  px                15      0.279566  1 O  px         
   292      0.258958  6 C  pz                71      0.247893  2 O  py         

 Vector   34  Occ=0.000000D+00  E= 7.541730D-02
              MO Center=  6.0D-01,  1.0D+00, -8.6D-01, r^2= 1.4D+01
   Bfn.  Coefficient  Atom+Function         Bfn.  Coefficient  Atom+Function  
  ----- ------------  ---------------      ----- ------------  ---------------
   280    -13.370262  6 C  s                225     13.212080  5 C  s          
   115     -6.076403  3 O  s                  5     -3.699942  1 O  s          
   292     -3.420466  6 C  pz               237     -2.649393  5 C  pz         
   234      2.509138  5 C  pz               279      2.047214  6 C  s          
    16     -1.811806  1 O  py               310      1.690365  6 C  dzz        

 Vector   35  Occ=0.000000D+00  E= 8.759691D-02
              MO Center=  7.9D-01,  1.1D+00, -2.1D+00, r^2= 1.4D+01
   Bfn.  Coefficient  Atom+Function         Bfn.  Coefficient  Atom+Function  
  ----- ------------  ---------------      ----- ------------  ---------------
   280    -16.199888  6 C  s                225     15.731178  5 C  s          
   279     -5.886716  6 C  s                 60      4.711741  2 O  s          
   292     -4.701516  6 C  pz               170      3.895518  4 O  s          
     5     -2.965538  1 O  s                237     -1.918149  5 C  pz         
   224      1.680605  5 C  s                115     -1.515444  3 O  s          

 Vector   36  Occ=0.000000D+00  E= 9.526835D-02
              MO Center=  4.8D-01,  8.4D-01, -5.7D-01, r^2= 1.3D+01
   Bfn.  Coefficient  Atom+Function         Bfn.  Coefficient  Atom+Function  
  ----- ------------  ---------------      ----- ------------  ---------------
    15      1.380598  1 O  px               279     -1.006602  6 C  s          
   280     -0.926844  6 C  s                 16     -0.820682  1 O  py         
   125     -0.822231  3 O  px               225      0.801547  5 C  s          
   224      0.750616  5 C  s                251      0.666206  5 C  dxy        
    60      0.657992  2 O  s                170      0.652558  4 O  s          

 Vector   37  Occ=0.000000D+00  E= 1.038305D-01
              MO Center=  4.2D-01,  6.2D-01, -8.2D-01, r^2= 1.9D+01
   Bfn.  Coefficient  Atom+Function         Bfn.  Coefficient  Atom+Function  
  ----- ------------  ---------------      ----- ------------  ---------------
   280     13.040622  6 C  s                  5    -11.443136  1 O  s          
   333      8.243948  7 H  s                237      7.875681  5 C  pz         
   236     -4.709492  5 C  py               224      3.556433  5 C  s          
   334     -3.404315  7 H  s                170     -3.346492  4 O  s          
   235     -3.213859  5 C  px               115     -3.003400  3 O  s          

 Vector   38  Occ=0.000000D+00  E= 1.143829D-01
              MO Center=  5.9D-01,  9.0D-01, -1.4D+00, r^2= 1.7D+01
   Bfn.  Coefficient  Atom+Function         Bfn.  Coefficient  Atom+Function  
  ----- ------------  ---------------      ----- ------------  ---------------
   279     18.646105  6 C  s                224    -16.527071  5 C  s          
   115      7.937040  3 O  s                170     -7.459330  4 O  s          
   255     -6.658913  5 C  dzz              280     -6.587993  6 C  s          
    60     -6.287489  2 O  s                310      5.942020  6 C  dzz        
   308      5.027971  6 C  dyy                5      4.886718  1 O  s          

 Vector   39  Occ=0.000000D+00  E= 1.305790D-01
              MO Center=  5.3D-01,  9.2D-01, -5.6D-01, r^2= 1.5D+01
   Bfn.  Coefficient  Atom+Function         Bfn.  Coefficient  Atom+Function  
  ----- ------------  ---------------      ----- ------------  ---------------
   280    -36.337500  6 C  s                225     35.616924  5 C  s          
   237    -10.771475  5 C  pz               115     -9.612816  3 O  s          
    60      8.822217  2 O  s                170      7.188847  4 O  s          
     5     -6.630464  1 O  s                292     -5.665176  6 C  pz         
   234      3.480038  5 C  pz               289      3.478667  6 C  pz         

 Vector   40  Occ=0.000000D+00  E= 1.326699D-01
              MO Center=  5.1D-01,  8.4D-01, -9.5D-01, r^2= 1.3D+01
   Bfn.  Coefficient  Atom+Function         Bfn.  Coefficient  Atom+Function  
  ----- ------------  ---------------      ----- ------------  ---------------
   225      4.613588  5 C  s                 60     -3.744711  2 O  s          
     5      2.980935  1 O  s                237      2.803155  5 C  pz         
   127     -2.607361  3 O  pz               308      2.434980  6 C  dyy        
   279      2.417929  6 C  s                253     -2.283951  5 C  dyy        
   224     -2.083376  5 C  s                305      2.021264  6 C  dxx        

 Vector   41  Occ=0.000000D+00  E= 1.427857D-01
              MO Center=  6.7D-01,  1.0D+00, -1.6D+00, r^2= 1.5D+01
   Bfn.  Coefficient  Atom+Function         Bfn.  Coefficient  Atom+Function  
  ----- ------------  ---------------      ----- ------------  ---------------
   180      1.656386  4 O  px                70     -1.411949  2 O  px         
    15     -1.304352  1 O  px               306      1.087862  6 C  dxy        
   251     -0.951299  5 C  dxy              308     -0.885020  6 C  dyy        
   181     -0.869786  4 O  py               305      0.846628  6 C  dxx        
   125      0.829836  3 O  px               235      0.765102  5 C  px         

 Vector   42  Occ=0.000000D+00  E= 1.554701D-01
              MO Center=  6.3D-01,  1.1D+00, -1.0D+00, r^2= 1.3D+01
   Bfn.  Coefficient  Atom+Function         Bfn.  Coefficient  Atom+Function  
  ----- ------------  ---------------      ----- ------------  ---------------
   115      7.100391  3 O  s                225     -5.426688  5 C  s          
   224     -4.596031  5 C  s                280      2.977407  6 C  s          
   237      2.531785  5 C  pz                60      2.387875  2 O  s          
   126     -2.386380  3 O  py               288     -2.103863  6 C  py         
   233     -2.064027  5 C  py                16     -2.027201  1 O  py         

 Vector   43  Occ=0.000000D+00  E= 1.591867D-01
              MO Center=  5.9D-01,  9.4D-01, -1.6D-01, r^2= 1.4D+01
   Bfn.  Coefficient  Atom+Function         Bfn.  Coefficient  Atom+Function  
  ----- ------------  ---------------      ----- ------------  ---------------
   235      3.035019  5 C  px               125     -2.183548  3 O  px         
   236     -1.783938  5 C  py               126      1.275599  3 O  py         
   180     -0.811163  4 O  px                15     -0.792930  1 O  px         
   232      0.718367  5 C  px               252      0.596524  5 C  dxz        
   341     -0.579410  7 H  px                12      0.571446  1 O  px         

 Vector   44  Occ=0.000000D+00  E= 1.615338D-01
              MO Center=  9.9D-01,  1.8D+00, -7.0D-01, r^2= 1.3D+01
   Bfn.  Coefficient  Atom+Function         Bfn.  Coefficient  Atom+Function  
  ----- ------------  ---------------      ----- ------------  ---------------
   225      7.932540  5 C  s                333      6.198683  7 H  s          
     5     -5.944565  1 O  s                280     -5.644890  6 C  s          
   279      2.902788  6 C  s                236      2.810727  5 C  py         
   126     -2.220669  3 O  py               309      2.178293  6 C  dyz        
    16     -2.092931  1 O  py               233     -2.047668  5 C  py         

 Vector   45  Occ=0.000000D+00  E= 1.719435D-01
              MO Center=  1.6D-01,  2.5D-01, -5.9D-01, r^2= 1.6D+01
   Bfn.  Coefficient  Atom+Function         Bfn.  Coefficient  Atom+Function  
  ----- ------------  ---------------      ----- ------------  ---------------
   280     24.865957  6 C  s                225    -11.246313  5 C  s          
    60     -8.859508  2 O  s                279      8.821821  6 C  s          
   170     -8.150054  4 O  s                292      5.148824  6 C  pz         
   224      4.425763  5 C  s                237      4.178492  5 C  pz         
    17      3.419814  1 O  pz               334     -3.107493  7 H  s          

 Vector   46  Occ=0.000000D+00  E= 1.783730D-01
              MO Center=  5.3D-01,  8.1D-01, -1.1D+00, r^2= 1.2D+01
   Bfn.  Coefficient  Atom+Function         Bfn.  Coefficient  Atom+Function  
  ----- ------------  ---------------      ----- ------------  ---------------
   290      2.380828  6 C  px                70     -1.799183  2 O  px         
   291     -1.439420  6 C  py               341      1.400705  7 H  px         
    15     -1.308116  1 O  px               309      1.189834  6 C  dyz        
   180     -1.131646  4 O  px               280      0.870492  6 C  s          
    16      0.844267  1 O  py                12     -0.829390  1 O  px         

 Vector   47  Occ=0.000000D+00  E= 1.791405D-01
              MO Center=  7.5D-01,  1.2D+00, -1.4D+00, r^2= 1.4D+01
   Bfn.  Coefficient  Atom+Function         Bfn.  Coefficient  Atom+Function  
  ----- ------------  ---------------      ----- ------------  ---------------
   280     16.094355  6 C  s                225    -12.616986  5 C  s          
   279    -10.139411  6 C  s                224      8.720930  5 C  s          
   234     -6.220203  5 C  pz               237      6.104154  5 C  pz         
   289     -5.172784  6 C  pz               292      4.604157  6 C  pz         
   333      4.621616  7 H  s                255      4.141969  5 C  dzz        

 Vector   48  Occ=0.000000D+00  E= 1.931181D-01
              MO Center=  7.3D-01,  1.0D+00, -2.0D+00, r^2= 1.7D+01
   Bfn.  Coefficient  Atom+Function         Bfn.  Coefficient  Atom+Function  
  ----- ------------  ---------------      ----- ------------  ---------------
   170      6.966298  4 O  s                309     -6.720323  6 C  dyz        
     5     -6.048975  1 O  s                254     -4.747915  5 C  dyz        
   333      4.401321  7 H  s                115      4.339271  3 O  s          
    60     -4.019314  2 O  s                307     -3.782933  6 C  dxz        
   181      3.054071  4 O  py                72      2.864073  2 O  pz         

 Vector   49  Occ=0.000000D+00  E= 1.997436D-01
              MO Center=  5.7D-01,  8.1D-01, -1.8D+00, r^2= 1.9D+01
   Bfn.  Coefficient  Atom+Function         Bfn.  Coefficient  Atom+Function  
  ----- ------------  ---------------      ----- ------------  ---------------
   291      7.195084  6 C  py               236     -6.522862  5 C  py         
   224      5.406772  5 C  s                182     -4.275461  4 O  pz         
   237     -4.070746  5 C  pz               290      3.770251  6 C  px         
   115     -3.490343  3 O  s                292      3.493764  6 C  pz         
   235     -3.386589  5 C  px               127      3.229964  3 O  pz         

 Vector   50  Occ=0.000000D+00  E= 2.021248D-01
              MO Center=  8.2D-01,  1.2D+00, -1.9D+00, r^2= 1.7D+01
   Bfn.  Coefficient  Atom+Function         Bfn.  Coefficient  Atom+Function  
  ----- ------------  ---------------      ----- ------------  ---------------
   280      7.193818  6 C  s                115     -5.930051  3 O  s          
   237      5.524674  5 C  pz               291      5.077108  6 C  py         
   236     -4.769295  5 C  py               279     -4.273757  6 C  s          
    72      3.915818  2 O  pz               254      3.926680  5 C  dyz        
    60      3.467600  2 O  s                292     -3.400863  6 C  pz         

 Vector   51  Occ=0.000000D+00  E= 2.107261D-01
              MO Center=  6.4D-01,  9.5D-01, -1.7D+00, r^2= 1.5D+01
   Bfn.  Coefficient  Atom+Function         Bfn.  Coefficient  Atom+Function  
  ----- ------------  ---------------      ----- ------------  ---------------
   290     -4.435473  6 C  px               235      4.310373  5 C  px         
   291      2.694198  6 C  py               236     -2.553032  5 C  py         
   180      2.197305  4 O  px                15     -2.089068  1 O  px         
   125     -1.936553  3 O  px                70      1.837330  2 O  px         
    16      1.155455  1 O  py               126      1.124667  3 O  py         

 Vector   52  Occ=0.000000D+00  E= 2.196058D-01
              MO Center=  6.7D-01,  1.1D+00, -1.0D+00, r^2= 1.2D+01
   Bfn.  Coefficient  Atom+Function         Bfn.  Coefficient  Atom+Function  
  ----- ------------  ---------------      ----- ------------  ---------------
   280     16.186619  6 C  s                225     -9.173494  5 C  s          
   170     -8.292277  4 O  s                279      7.870277  6 C  s          
   224     -7.737591  5 C  s                333      7.421078  7 H  s          
   115      7.141760  3 O  s                255     -4.682752  5 C  dzz        
   237      4.499195  5 C  pz               253     -3.287290  5 C  dyy        

 Vector   53  Occ=0.000000D+00  E= 2.422224D-01
              MO Center=  5.1D-01,  8.3D-01, -9.6D-01, r^2= 1.4D+01
   Bfn.  Coefficient  Atom+Function         Bfn.  Coefficient  Atom+Function  
  ----- ------------  ---------------      ----- ------------  ---------------
   225    -19.941759  5 C  s                  5     18.478367  1 O  s          
   115     16.337053  3 O  s                333    -16.054893  7 H  s          
   280     13.051781  6 C  s                224     -9.738472  5 C  s          
   254     -7.737870  5 C  dyz               60     -7.472981  2 O  s          
   170      5.392576  4 O  s                252     -4.231223  5 C  dxz        

 Vector   54  Occ=0.000000D+00  E= 2.513667D-01
              MO Center=  5.2D-01,  8.2D-01, -7.1D-01, r^2= 1.3D+01
   Bfn.  Coefficient  Atom+Function         Bfn.  Coefficient  Atom+Function  
  ----- ------------  ---------------      ----- ------------  ---------------
   225     22.675791  5 C  s                280    -19.939760  6 C  s          
     5    -13.289144  1 O  s                170     11.421212  4 O  s          
   289      4.082572  6 C  pz               234      3.556029  5 C  pz         
   292     -3.457108  6 C  pz               115      3.219360  3 O  s          
   233     -3.090567  5 C  py               237     -2.769329  5 C  pz         

 Vector   55  Occ=0.000000D+00  E= 2.735329D-01
              MO Center=  5.5D-01,  9.6D-01, -9.8D-01, r^2= 1.0D+01
   Bfn.  Coefficient  Atom+Function         Bfn.  Coefficient  Atom+Function  
  ----- ------------  ---------------      ----- ------------  ---------------
   280     20.319401  6 C  s                225    -14.708590  5 C  s          
    60    -11.641971  2 O  s                170     -7.942672  4 O  s          
   237      6.966173  5 C  pz                 5     -5.249812  1 O  s          
   115      4.602735  3 O  s                 17     -3.853435  1 O  pz         
   308      3.862804  6 C  dyy              289     -3.532088  6 C  pz         

 Vector   56  Occ=0.000000D+00  E= 2.746474D-01
              MO Center=  4.7D-01,  8.6D-01, -8.4D-01, r^2= 1.0D+01
   Bfn.  Coefficient  Atom+Function         Bfn.  Coefficient  Atom+Function  
  ----- ------------  ---------------      ----- ------------  ---------------
   280     18.940786  6 C  s                225    -13.467359  5 C  s          
    60     -9.525157  2 O  s                170     -7.163405  4 O  s          
   237      6.522780  5 C  pz                 5     -6.022061  1 O  s          
    17     -3.699199  1 O  pz               289     -3.216469  6 C  pz         
   333      3.191235  7 H  s                252     -3.004225  5 C  dxz        

 Vector   57  Occ=0.000000D+00  E= 2.788407D-01
              MO Center=  8.2D-01,  1.3D+00, -7.4D-01, r^2= 8.6D+00
   Bfn.  Coefficient  Atom+Function         Bfn.  Coefficient  Atom+Function  
  ----- ------------  ---------------      ----- ------------  ---------------
   307      2.509549  6 C  dxz              254     -1.978688  5 C  dyz        
   280     -1.971115  6 C  s                309     -1.679895  6 C  dyz        
   252      1.660446  5 C  dxz              287      1.649997  6 C  px         
   125     -1.631260  3 O  px               288     -1.479003  6 C  py         
   333     -1.448633  7 H  s                225      1.362835  5 C  s          

 Vector   58  Occ=0.000000D+00  E= 2.876343D-01
              MO Center=  1.5D-01,  2.2D-01, -6.8D-03, r^2= 1.3D+01
   Bfn.  Coefficient  Atom+Function         Bfn.  Coefficient  Atom+Function  
  ----- ------------  ---------------      ----- ------------  ---------------
   280     29.053358  6 C  s                225    -22.339823  5 C  s          
   224     14.471254  5 C  s                279    -12.876687  6 C  s          
   234    -11.400567  5 C  pz               289    -10.721600  6 C  pz         
     5    -10.049625  1 O  s                333     10.066615  7 H  s          
   237      9.159426  5 C  pz                60     -6.902704  2 O  s          

 Vector   59  Occ=0.000000D+00  E= 2.972582D-01
              MO Center=  7.9D-01,  1.4D+00, -5.4D-01, r^2= 1.0D+01
   Bfn.  Coefficient  Atom+Function         Bfn.  Coefficient  Atom+Function  
  ----- ------------  ---------------      ----- ------------  ---------------
    60     11.902615  2 O  s                279    -10.685236  6 C  s          
   170      7.428115  4 O  s                333     -6.358129  7 H  s          
   280     -5.606592  6 C  s                308     -4.940318  6 C  dyy        
   305     -3.833787  6 C  dxx              310     -3.292757  6 C  dzz        
   253      3.152067  5 C  dyy              255      3.120888  5 C  dzz        

 Vector   60  Occ=0.000000D+00  E= 3.027009D-01
              MO Center=  3.4D-01,  5.6D-01,  2.7D-01, r^2= 1.1D+01
   Bfn.  Coefficient  Atom+Function         Bfn.  Coefficient  Atom+Function  
  ----- ------------  ---------------      ----- ------------  ---------------
   115     13.613144  3 O  s                225    -11.796279  5 C  s          
   280     10.409520  6 C  s                234     -7.378673  5 C  pz         
   279     -6.431009  6 C  s                289     -6.100141  6 C  pz         
    17     -5.969016  1 O  pz                60     -5.657855  2 O  s          
   253     -4.764095  5 C  dyy                5      4.345625  1 O  s          

 Vector   61  Occ=0.000000D+00  E= 3.057733D-01
              MO Center=  7.5D-01,  1.2D+00, -2.3D+00, r^2= 8.3D+00
   Bfn.  Coefficient  Atom+Function         Bfn.  Coefficient  Atom+Function  
  ----- ------------  ---------------      ----- ------------  ---------------
   307      3.367303  6 C  dxz              232     -2.933363  5 C  px         
   279      2.395543  6 C  s                224     -2.191575  5 C  s          
   280     -2.078526  6 C  s                309     -1.974440  6 C  dyz        
   252      1.851287  5 C  dxz              333     -1.645417  7 H  s          
   233      1.582359  5 C  py               225      1.503009  5 C  s          

 Vector   62  Occ=0.000000D+00  E= 3.149029D-01
              MO Center=  5.8D-01,  6.8D-01, -1.5D+00, r^2= 1.5D+01
   Bfn.  Coefficient  Atom+Function         Bfn.  Coefficient  Atom+Function  
  ----- ------------  ---------------      ----- ------------  ---------------
   224     35.637015  5 C  s                279    -35.693659  6 C  s          
   115    -20.483167  3 O  s                  5    -19.426727  1 O  s          
   170     18.944574  4 O  s                 60     16.225275  2 O  s          
   255     13.306761  5 C  dzz              310    -12.867969  6 C  dzz        
   308    -12.443025  6 C  dyy              305    -10.474700  6 C  dxx        

 Vector   63  Occ=0.000000D+00  E= 3.270200D-01
              MO Center=  2.5D-01,  5.5D-01, -4.4D-01, r^2= 8.7D+00
   Bfn.  Coefficient  Atom+Function         Bfn.  Coefficient  Atom+Function  
  ----- ------------  ---------------      ----- ------------  ---------------
   252      4.428921  5 C  dxz              224     -2.630301  5 C  s          
   279      2.578626  6 C  s                254     -2.310374  5 C  dyz        
   341     -1.846798  7 H  px               307      1.643868  6 C  dxz        
   115      1.386685  3 O  s                 15      1.370200  1 O  px         
   122     -1.369513  3 O  px               253     -1.375419  5 C  dyy        

 Vector   64  Occ=0.000000D+00  E= 3.434841D-01
              MO Center=  7.4D-01,  1.0D+00, -2.3D+00, r^2= 1.2D+01
   Bfn.  Coefficient  Atom+Function         Bfn.  Coefficient  Atom+Function  
  ----- ------------  ---------------      ----- ------------  ---------------
   279     31.806063  6 C  s                224    -27.664042  5 C  s          
   234     18.581441  5 C  pz               289     17.320004  6 C  pz         
     5    -14.511494  1 O  s                333     13.122195  7 H  s          
   225     12.571411  5 C  s                310     11.794112  6 C  dzz        
   115     -7.843551  3 O  s                280     -7.724664  6 C  s          

 Vector   65  Occ=0.000000D+00  E= 3.618289D-01
              MO Center=  6.4D-01,  9.6D-01, -1.7D+00, r^2= 1.0D+01
   Bfn.  Coefficient  Atom+Function         Bfn.  Coefficient  Atom+Function  
  ----- ------------  ---------------      ----- ------------  ---------------
   280     47.317630  6 C  s                225    -42.829491  5 C  s          
   115     14.540974  3 O  s                170    -14.288654  4 O  s          
    60    -13.517690  2 O  s                279     10.579235  6 C  s          
   237      9.567108  5 C  pz               224     -8.141674  5 C  s          
     5      7.712160  1 O  s                292      6.792823  6 C  pz         

 Vector   66  Occ=0.000000D+00  E= 3.922560D-01
              MO Center=  1.2D+00,  2.0D+00, -1.3D+00, r^2= 8.5D+00
   Bfn.  Coefficient  Atom+Function         Bfn.  Coefficient  Atom+Function  
  ----- ------------  ---------------      ----- ------------  ---------------
   279     10.213506  6 C  s                 60     -8.999260  2 O  s          
   224      8.307664  5 C  s                280      8.139576  6 C  s          
   170     -8.000192  4 O  s                115     -4.634287  3 O  s          
   253      4.395844  5 C  dyy              251      4.339809  5 C  dxy        
   225     -3.957013  5 C  s                308      3.825183  6 C  dyy        

 Vector   67  Occ=0.000000D+00  E= 4.064200D-01
              MO Center= -3.0D-02, -9.9D-02, -3.5D-01, r^2= 1.1D+01
   Bfn.  Coefficient  Atom+Function         Bfn.  Coefficient  Atom+Function  
  ----- ------------  ---------------      ----- ------------  ---------------
   280     21.242841  6 C  s                333    -16.710030  7 H  s          
   225    -10.746696  5 C  s                 60     -9.439780  2 O  s          
   170     -7.889885  4 O  s                224      7.673989  5 C  s          
   255      6.366095  5 C  dzz              237      5.110334  5 C  pz         
   309     -5.020768  6 C  dyz              332      4.154949  7 H  s          

 Vector   68  Occ=0.000000D+00  E= 4.254656D-01
              MO Center=  7.6D-01,  1.2D+00, -1.4D+00, r^2= 1.1D+01
   Bfn.  Coefficient  Atom+Function         Bfn.  Coefficient  Atom+Function  
  ----- ------------  ---------------      ----- ------------  ---------------
   306      4.252681  6 C  dxy              251     -3.577041  5 C  dxy        
   305      3.255470  6 C  dxx              308     -3.215521  6 C  dyy        
   253      2.726129  5 C  dyy              250     -2.640633  5 C  dxx        
   177      1.719271  4 O  px                67     -1.695871  2 O  px         
   125      1.667950  3 O  px               122      1.610316  3 O  px         

 Vector   69  Occ=0.000000D+00  E= 4.344155D-01
              MO Center=  6.5D-01,  1.2D+00, -1.5D-01, r^2= 9.0D+00
   Bfn.  Coefficient  Atom+Function         Bfn.  Coefficient  Atom+Function  
  ----- ------------  ---------------      ----- ------------  ---------------
   279    -19.812911  6 C  s                224     18.875149  5 C  s          
     5     11.773822  1 O  s                255     11.773637  5 C  dzz        
   115     -9.425867  3 O  s                289     -9.293534  6 C  pz         
   333     -9.010232  7 H  s                233      6.527183  5 C  py         
   288      5.402837  6 C  py               254      4.659175  5 C  dyz        

 Vector   70  Occ=0.000000D+00  E= 4.503332D-01
              MO Center=  5.9D-01,  9.6D-01, -1.1D+00, r^2= 7.9D+00
   Bfn.  Coefficient  Atom+Function         Bfn.  Coefficient  Atom+Function  
  ----- ------------  ---------------      ----- ------------  ---------------
   287     -6.988465  6 C  px               232      6.830845  5 C  px         
   252     -4.523700  5 C  dxz              288      4.139367  6 C  py         
   307     -3.926656  6 C  dxz              233     -3.264054  5 C  py         
   254      2.519801  5 C  dyz              309      2.196010  6 C  dyz        
   224     -1.474992  5 C  s                  5      1.322896  1 O  s          

 Vector   71  Occ=0.000000D+00  E= 4.578265D-01
              MO Center=  5.6D-01,  1.1D+00, -2.9D-01, r^2= 9.1D+00
   Bfn.  Coefficient  Atom+Function         Bfn.  Coefficient  Atom+Function  
  ----- ------------  ---------------      ----- ------------  ---------------
   279     40.759510  6 C  s                224    -25.776966  5 C  s          
   255    -18.879322  5 C  dzz              254     17.549907  5 C  dyz        
   333     14.088062  7 H  s                234     13.572075  5 C  pz         
   252     12.624053  5 C  dxz              289     12.410578  6 C  pz         
   280     -9.271074  6 C  s                225      8.040565  5 C  s          

 Vector   72  Occ=0.000000D+00  E= 4.635118D-01
              MO Center=  6.6D-01,  9.8D-01, -1.8D+00, r^2= 1.0D+01
   Bfn.  Coefficient  Atom+Function         Bfn.  Coefficient  Atom+Function  
  ----- ------------  ---------------      ----- ------------  ---------------
   224     21.088850  5 C  s                279    -17.720771  6 C  s          
   170    -12.698390  4 O  s                309     11.790888  6 C  dyz        
   255     10.970536  5 C  dzz              115     -9.783454  3 O  s          
    60      9.456466  2 O  s                280      8.796700  6 C  s          
   254      8.708652  5 C  dyz              289     -8.640658  6 C  pz         

 Vector   73  Occ=0.000000D+00  E= 4.819825D-01
              MO Center=  7.4D-01,  1.2D+00, -1.6D+00, r^2= 8.2D+00
   Bfn.  Coefficient  Atom+Function         Bfn.  Coefficient  Atom+Function  
  ----- ------------  ---------------      ----- ------------  ---------------
   279     22.184211  6 C  s                254     18.391559  5 C  dyz        
   309     15.223465  6 C  dyz              333     13.767794  7 H  s          
   170    -13.028306  4 O  s                252     10.446992  5 C  dxz        
   115     -9.547311  3 O  s                288      9.155978  6 C  py         
   307      8.033677  6 C  dxz              233     -6.510567  5 C  py         

 Vector   74  Occ=0.000000D+00  E= 4.896595D-01
              MO Center=  4.2D-01,  5.6D-01, -1.3D+00, r^2= 1.1D+01
   Bfn.  Coefficient  Atom+Function         Bfn.  Coefficient  Atom+Function  
  ----- ------------  ---------------      ----- ------------  ---------------
   224     26.946160  5 C  s                  5    -16.714732  1 O  s          
   289    -11.273468  6 C  pz               309    -10.669872  6 C  dyz        
    60    -10.607668  2 O  s                333      8.912356  7 H  s          
   254     -6.616872  5 C  dyz              306      5.437644  6 C  dxy        
   307     -5.249066  6 C  dxz              280      5.111072  6 C  s          

 Vector   75  Occ=0.000000D+00  E= 5.018007D-01
              MO Center=  4.3D-01,  7.6D-01, -6.2D-01, r^2= 9.9D+00
   Bfn.  Coefficient  Atom+Function         Bfn.  Coefficient  Atom+Function  
  ----- ------------  ---------------      ----- ------------  ---------------
   333     25.959816  7 H  s                280     19.255099  6 C  s          
   279     13.884311  6 C  s                254     12.402020  5 C  dyz        
   225    -11.197761  5 C  s                224     -9.659262  5 C  s          
     5     -9.265404  1 O  s                343     -6.782129  7 H  pz         
   252      6.711937  5 C  dxz              170     -6.537670  4 O  s          

 Vector   76  Occ=0.000000D+00  E= 5.257583D-01
              MO Center=  4.4D-01,  7.3D-01, -4.3D-01, r^2= 7.9D+00
   Bfn.  Coefficient  Atom+Function         Bfn.  Coefficient  Atom+Function  
  ----- ------------  ---------------      ----- ------------  ---------------
    32      1.930365  1 O  dxz               12      1.836161  1 O  px         
   224     -1.703501  5 C  s                  5      1.635459  1 O  s          
   232     -1.643343  5 C  px               341     -1.592091  7 H  px         
   308      1.547138  6 C  dyy              288     -1.510075  6 C  py         
   225     -1.494221  5 C  s                251     -1.421385  5 C  dxy        

 Vector   77  Occ=0.000000D+00  E= 5.392565D-01
              MO Center=  8.6D-01,  1.3D+00, -1.4D+00, r^2= 8.7D+00
   Bfn.  Coefficient  Atom+Function         Bfn.  Coefficient  Atom+Function  
  ----- ------------  ---------------      ----- ------------  ---------------
   280    -26.827642  6 C  s                225     26.401019  5 C  s          
    60     17.544380  2 O  s                115    -17.599971  3 O  s          
   224     14.567851  5 C  s                279    -12.126914  6 C  s          
   306    -10.963690  6 C  dxy              233     10.298252  5 C  py         
   234     10.032256  5 C  pz               114     -9.898541  3 O  s          

 Vector   78  Occ=0.000000D+00  E= 5.550524D-01
              MO Center=  4.6D-01,  6.2D-01, -1.4D+00, r^2= 9.3D+00
   Bfn.  Coefficient  Atom+Function         Bfn.  Coefficient  Atom+Function  
  ----- ------------  ---------------      ----- ------------  ---------------
     5     26.649388  1 O  s                279     26.191520  6 C  s          
   333    -24.348253  7 H  s                225    -22.449894  5 C  s          
   280     18.878874  6 C  s                115     16.611444  3 O  s          
   224    -15.169354  5 C  s                254    -14.910225  5 C  dyz        
   288    -13.693227  6 C  py               306     12.463405  6 C  dxy        

 Vector   79  Occ=0.000000D+00  E= 5.681423D-01
              MO Center=  3.0D-01,  4.8D-01, -7.8D-01, r^2= 8.5D+00
   Bfn.  Coefficient  Atom+Function         Bfn.  Coefficient  Atom+Function  
  ----- ------------  ---------------      ----- ------------  ---------------
   333     20.557296  7 H  s                224    -11.514218  5 C  s          
   170    -11.008642  4 O  s                  5     -9.869824  1 O  s          
   225     -8.644659  5 C  s                280      8.457506  6 C  s          
   308      7.374937  6 C  dyy               60     -7.143726  2 O  s          
     4      7.057666  1 O  s                288     -6.821676  6 C  py         

 Vector   80  Occ=0.000000D+00  E= 5.796698D-01
              MO Center=  2.1D-01,  3.0D-01, -8.6D-01, r^2= 6.9D+00
   Bfn.  Coefficient  Atom+Function         Bfn.  Coefficient  Atom+Function  
  ----- ------------  ---------------      ----- ------------  ---------------
   252      4.214089  5 C  dxz              287      3.466582  6 C  px         
   225      2.570003  5 C  s                280     -2.249008  6 C  s          
   224      1.581087  5 C  s                279     -1.578090  6 C  s          
    31     -1.478532  1 O  dxy                5     -1.453108  1 O  s          
   115     -1.192109  3 O  s                170      1.155651  4 O  s          

 Vector   81  Occ=0.000000D+00  E= 5.935379D-01
              MO Center=  5.0D-01,  9.9D-01, -1.9D-01, r^2= 8.6D+00
   Bfn.  Coefficient  Atom+Function         Bfn.  Coefficient  Atom+Function  
  ----- ------------  ---------------      ----- ------------  ---------------
   235      1.967885  5 C  px                12      1.686877  1 O  px         
   125     -1.503187  3 O  px               333     -1.404601  7 H  s          
    13     -1.210749  1 O  py               254     -1.139181  5 C  dyz        
    32      1.101126  1 O  dxz                5      1.024500  1 O  s          
   341     -1.014758  7 H  px               271      0.898098  5 C  fxzz       

 Vector   82  Occ=0.000000D+00  E= 6.168056D-01
              MO Center=  5.5D-01,  9.3D-01, -8.2D-01, r^2= 1.0D+01
   Bfn.  Coefficient  Atom+Function         Bfn.  Coefficient  Atom+Function  
  ----- ------------  ---------------      ----- ------------  ---------------
   224     48.511088  5 C  s                279    -45.458646  6 C  s          
   289    -33.189435  6 C  pz               234    -29.244692  5 C  pz         
   280     21.757501  6 C  s                225    -15.446890  5 C  s          
   255     15.272635  5 C  dzz              115    -13.730763  3 O  s          
   254     13.233594  5 C  dyz              310    -12.614029  6 C  dzz        

 Vector   83  Occ=0.000000D+00  E= 6.233480D-01
              MO Center=  5.3D-01,  8.2D-01, -1.2D+00, r^2= 8.2D+00
   Bfn.  Coefficient  Atom+Function         Bfn.  Coefficient  Atom+Function  
  ----- ------------  ---------------      ----- ------------  ---------------
   279    -44.554796  6 C  s                224     42.146344  5 C  s          
   289    -21.236177  6 C  pz               234    -19.772819  5 C  pz         
   333    -16.173128  7 H  s                254    -14.961310  5 C  dyz        
   310    -12.829300  6 C  dzz              255     11.917776  5 C  dzz        
   252    -10.152895  5 C  dxz                5      9.656809  1 O  s          

 Vector   84  Occ=0.000000D+00  E= 6.313131D-01
              MO Center=  7.9D-01,  1.1D+00, -1.4D+00, r^2= 6.9D+00
   Bfn.  Coefficient  Atom+Function         Bfn.  Coefficient  Atom+Function  
  ----- ------------  ---------------      ----- ------------  ---------------
   224      3.872699  5 C  s                279     -3.106915  6 C  s          
   115      2.950098  3 O  s                254     -2.638533  5 C  dyz        
   289     -2.537497  6 C  pz               234     -2.398298  5 C  pz         
   333     -1.817166  7 H  s                251     -1.754641  5 C  dxy        
   288     -1.725199  6 C  py               252     -1.648376  5 C  dxz        

 Vector   85  Occ=0.000000D+00  E= 6.336201D-01
              MO Center=  4.1D-01,  7.2D-01, -5.9D-01, r^2= 9.5D+00
   Bfn.  Coefficient  Atom+Function         Bfn.  Coefficient  Atom+Function  
  ----- ------------  ---------------      ----- ------------  ---------------
   279     14.729821  6 C  s                333      9.900478  7 H  s          
   115      9.453698  3 O  s                  5     -9.331712  1 O  s          
   280      8.624988  6 C  s                224     -6.910816  5 C  s          
   255     -6.094930  5 C  dzz              306      5.562742  6 C  dxy        
     4      5.087169  1 O  s                 59     -5.005633  2 O  s          

 Vector   86  Occ=0.000000D+00  E= 6.415365D-01
              MO Center=  6.6D-01,  1.1D+00, -1.0D+00, r^2= 5.6D+00
   Bfn.  Coefficient  Atom+Function         Bfn.  Coefficient  Atom+Function  
  ----- ------------  ---------------      ----- ------------  ---------------
   224      4.054053  5 C  s                279     -3.779921  6 C  s          
   289     -2.615172  6 C  pz               234     -2.580775  5 C  pz         
    12      1.906315  1 O  px               280      1.799858  6 C  s          
   177      1.593396  4 O  px                 5     -1.534410  1 O  s          
   310     -1.477256  6 C  dzz              254      1.401349  5 C  dyz        

 Vector   87  Occ=0.000000D+00  E= 6.479222D-01
              MO Center=  6.5D-01,  8.9D-01, -1.8D+00, r^2= 7.4D+00
   Bfn.  Coefficient  Atom+Function         Bfn.  Coefficient  Atom+Function  
  ----- ------------  ---------------      ----- ------------  ---------------
   254      3.348521  5 C  dyz              288      2.085255  6 C  py         
   115     -1.960342  3 O  s                252     -1.918148  5 C  dxz        
   325      1.758165  6 C  fxyz             287     -1.583296  6 C  px         
   309      1.535435  6 C  dyz              323      1.362646  6 C  fxxz       
   333      1.349333  7 H  s                253      1.173486  5 C  dyy        

 Vector   88  Occ=0.000000D+00  E= 6.529763D-01
              MO Center=  6.8D-01,  1.1D+00, -1.2D+00, r^2= 8.8D+00
   Bfn.  Coefficient  Atom+Function         Bfn.  Coefficient  Atom+Function  
  ----- ------------  ---------------      ----- ------------  ---------------
   279      4.427800  6 C  s                224     -3.793674  5 C  s          
   290      2.335076  6 C  px               289      2.271821  6 C  pz         
   235     -2.205903  5 C  px               234      2.171682  5 C  pz         
   308      1.744639  6 C  dyy              310      1.649090  6 C  dzz        
   180     -1.620901  4 O  px               142     -1.548134  3 O  dxz        

 Vector   89  Occ=0.000000D+00  E= 6.613590D-01
              MO Center=  9.4D-01,  1.6D+00, -7.5D-01, r^2= 1.0D+01
   Bfn.  Coefficient  Atom+Function         Bfn.  Coefficient  Atom+Function  
  ----- ------------  ---------------      ----- ------------  ---------------
   234      8.912381  5 C  pz               115      8.605911  3 O  s          
   333     -8.389248  7 H  s                280     -6.898951  6 C  s          
   289      6.560024  6 C  pz               279      6.191074  6 C  s          
   310      5.987041  6 C  dzz              305      5.759646  6 C  dxx        
   308      5.678913  6 C  dyy              170     -5.635990  4 O  s          

 Vector   90  Occ=0.000000D+00  E= 6.715059D-01
              MO Center=  9.9D-01,  1.7D+00, -1.9D+00, r^2= 9.6D+00
   Bfn.  Coefficient  Atom+Function         Bfn.  Coefficient  Atom+Function  
  ----- ------------  ---------------      ----- ------------  ---------------
   279    -34.816461  6 C  s                224     32.758706  5 C  s          
    60     23.466548  2 O  s                170     17.618160  4 O  s          
   308    -16.516742  6 C  dyy              255     14.587673  5 C  dzz        
   115    -14.407614  3 O  s                310    -13.863408  6 C  dzz        
   253     12.796240  5 C  dyy              234    -12.588582  5 C  pz         

 Vector   91  Occ=0.000000D+00  E= 6.744100D-01
              MO Center=  9.6D-01,  1.5D+00, -8.9D-01, r^2= 7.5D+00
   Bfn.  Coefficient  Atom+Function         Bfn.  Coefficient  Atom+Function  
  ----- ------------  ---------------      ----- ------------  ---------------
   279    -10.776275  6 C  s                224     10.568265  5 C  s          
    60      8.502978  2 O  s                170      6.473559  4 O  s          
[...]
  ----- ------------  ---------------      ----- ------------  ---------------
    59     14.464989  2 O  s                 57      9.157832  2 O  s          
   169     -7.511315  4 O  s                288     -4.803676  6 C  py         
   114     -4.700940  3 O  s                 68     -4.389258  2 O  py         
     4      4.305380  1 O  s                179     -4.322636  4 O  pz         
    84     -3.807958  2 O  dzz               60      3.635922  2 O  s          

 Vector  349  Occ=0.000000D+00  E= 1.674977D+01
              MO Center=  3.5D-01,  5.4D-01, -8.0D-01, r^2= 3.2D+00
   Bfn.  Coefficient  Atom+Function         Bfn.  Coefficient  Atom+Function  
  ----- ------------  ---------------      ----- ------------  ---------------
     2      9.702327  1 O  s                114      7.600724  3 O  s          
   169     -7.031032  4 O  s                  4      6.313970  1 O  s          
   167     -5.836992  4 O  s                280      5.461583  6 C  s          
   225     -5.364989  5 C  s                112      4.977307  3 O  s          
    27     -4.487066  1 O  dyy               57     -4.441522  2 O  s          

 Vector  350  Occ=0.000000D+00  E= 1.740047D+01
              MO Center=  2.7D-01,  4.0D-01, -8.1D-01, r^2= 3.5D+00
   Bfn.  Coefficient  Atom+Function         Bfn.  Coefficient  Atom+Function  
  ----- ------------  ---------------      ----- ------------  ---------------
   279     13.940087  6 C  s                233    -11.630518  5 C  py         
     4     10.195021  1 O  s                 13    -10.063329  1 O  py         
    33     -7.907999  1 O  dyy               30     -7.493209  1 O  dxx        
    35     -7.455631  1 O  dzz               10     -6.921929  1 O  py         
   232     -6.563996  5 C  px               175     -6.039907  4 O  py         

 Vector  351  Occ=0.000000D+00  E= 1.813101D+01
              MO Center=  8.8D-01,  1.5D+00, -1.2D+00, r^2= 4.0D+00
   Bfn.  Coefficient  Atom+Function         Bfn.  Coefficient  Atom+Function  
  ----- ------------  ---------------      ----- ------------  ---------------
   279     28.982741  6 C  s                254     13.636424  5 C  dyz        
   288     12.159462  6 C  py               224     11.517505  5 C  s          
   274     10.865866  5 C  fyzz             234     10.680493  5 C  pz         
   333      8.976562  7 H  s                  4      8.187968  1 O  s          
    65      7.875296  2 O  py               115     -7.802571  3 O  s          

 Vector  352  Occ=0.000000D+00  E= 1.943105D+01
              MO Center=  5.9D-01,  8.8D-01, -1.5D+00, r^2= 3.9D+00
   Bfn.  Coefficient  Atom+Function         Bfn.  Coefficient  Atom+Function  
  ----- ------------  ---------------      ----- ------------  ---------------
   329    -18.729882  6 C  fyzz             274     17.681979  5 C  fyzz       
   288     16.200139  6 C  py               233    -13.664292  5 C  py         
   303    -12.419347  6 C  dyz              248    -11.291067  5 C  dyz        
   326     -9.999934  6 C  fxzz             175      8.741716  4 O  py         
   271      8.733357  5 C  fxzz             287      8.571096  6 C  px         

 Vector  353  Occ=0.000000D+00  E= 2.158779D+01
              MO Center=  7.5D-01,  1.2D+00, -1.4D+00, r^2= 5.4D+00
   Bfn.  Coefficient  Atom+Function         Bfn.  Coefficient  Atom+Function  
  ----- ------------  ---------------      ----- ------------  ---------------
   279     32.078018  6 C  s                289    -25.204526  6 C  pz         
   234    -24.374859  5 C  pz               306     22.795145  6 C  dxy        
   224    -21.802403  5 C  s                325    -21.065062  6 C  fxyz       
   308     20.034795  6 C  dyy              115     19.621062  3 O  s          
   328    -18.556799  6 C  fyyz              60    -17.200691  2 O  s          

 Vector  354  Occ=0.000000D+00  E= 2.772342D+01
              MO Center=  6.8D-01,  1.1D+00, -1.3D+00, r^2= 2.1D+00
   Bfn.  Coefficient  Atom+Function         Bfn.  Coefficient  Atom+Function  
  ----- ------------  ---------------      ----- ------------  ---------------
   114     36.512308  3 O  s                169     27.089699  4 O  s          
   277    -22.240271  6 C  s                222    -20.767883  5 C  s          
   224    -18.572818  5 C  s                274    -13.100205  5 C  fyzz       
   230    -12.803789  5 C  py               123    -12.631758  3 O  py         
   178     11.904349  4 O  py               275    -11.430484  5 C  fzzz       

 Vector  355  Occ=0.000000D+00  E= 2.990039D+01
              MO Center=  6.7D-01,  1.1D+00, -1.2D+00, r^2= 1.9D+00
   Bfn.  Coefficient  Atom+Function         Bfn.  Coefficient  Atom+Function  
  ----- ------------  ---------------      ----- ------------  ---------------
   114     35.293049  3 O  s                 59    -27.834543  2 O  s          
   222    -22.846802  5 C  s                277     21.170987  6 C  s          
   273    -20.690204  5 C  fyyz             270    -17.950528  5 C  fxyz       
   325    -17.461924  6 C  fxyz             328    -17.117482  6 C  fyyz       
   274    -13.703193  5 C  fyzz             279    -11.745093  6 C  s          


   alpha - beta orbital overlaps 
   ----------------------------- 


   alpha      1      2      3      4      5      6      7      8      9     10
    beta      1      2      3      4      5      6      7      8      9     10
 overlap   1.000  1.000  1.000  1.000  1.000  1.000  0.999  0.996  0.998  0.998


   alpha     11     12     13     14     15     16     17     18     19     20
    beta     11     12     13     14     15     16     17     18     20     19
 overlap   0.999  0.998  0.998  0.997  1.000  0.886  0.891  1.000  0.973  0.991


   alpha     21     22     23     24     25     26     27     28     29     30
    beta     21     23     22     24     25     26     27     28     29     30
 overlap   1.000  0.891  0.904  1.000  1.000  1.000  0.999  0.999  1.000  0.986


   alpha     31     32     33     34     35     36     37     38     39     40
    beta     31     32     33     34     35     36     37     38     39     40
 overlap   0.987  0.999  1.000  0.988  0.985  1.000  0.995  0.997  0.975  0.973


   alpha     41     42     43     44     45     46     47     48     49     50
    beta     41     42     43     44     45     46     47     48     49     50
 overlap   1.000  0.944  0.999  0.935  0.971  1.000  0.970  0.982  0.906  0.925


   alpha     51     52     53     54     55     56     57     58     59     60
    beta     51     52     53     54     55     56     57     58     59     60
 overlap   1.000  0.998  0.998  0.996  0.865  0.863  0.998  0.999  0.990  0.961


   alpha     61     62     63     64     65     66     67     68     69     70
    beta     61     62     63     64     65     66     67     68     69     70
 overlap   0.971  0.992  1.000  0.999  1.000  1.000  1.000  1.000  0.998  1.000


   alpha     71     72     73     74     75     76     77     78     79     80
    beta     71     72     73     74     75     76     77     78     79     80
 overlap   0.998  0.997  0.987  0.987  0.999  1.000  0.995  0.995  0.998  1.000


   alpha     81     82     83     84     85     86     87     88     89     90
    beta     81     82     83     84     85     86     87     88     89     90
 overlap   0.999  0.967  0.967  0.997  0.996  0.999  0.998  0.997  0.991  0.990


   alpha     91     92     93     94     95     96     97     98     99    100
    beta     91     92     93     94     95     96     97     98     99    100
 overlap   0.998  0.996  0.997  0.996  0.999  0.993  0.995  0.997  0.999  0.996


   alpha    101    102    103    104    105    106    107    108    109    110
    beta    101    102    103    104    105    106    107    108    109    110
 overlap   0.996  1.000  0.999  0.991  0.992  0.974  0.968  0.985  1.000  0.999


   alpha    111    112    113    114    115    116    117    118    119    120
    beta    111    112    113    114    115    116    117    118    119    120
 overlap   1.000  1.000  1.000  0.999  0.999  1.000  0.998  0.997  0.973  0.969


   alpha    121    122    123    124    125    126    127    128    129    130
    beta    121    122    123    124    125    126    127    128    129    130
 overlap   0.991  0.998  1.000  0.999  0.998  0.998  0.998  0.966  0.865  0.885


   alpha    131    132    133    134    135    136    137    138    139    140
    beta    131    132    133    134    135    136    137    138    139    140
 overlap   0.983  0.985  0.998  0.999  1.000  0.983  0.983  1.000  1.000  1.000


   alpha    141    142    143    144    145    146    147    148    149    150
    beta    141    142    143    144    145    146    147    148    149    150
 overlap   0.999  1.000  0.996  0.996  1.000  0.999  0.999  1.000  0.995  0.995


   alpha    151    152    153    154    155    156    157    158    159    160
    beta    151    152    153    154    155    156    157    158    159    160
 overlap   0.999  0.999  0.999  0.999  1.000  0.999  0.999  0.997  0.996  0.969


   alpha    161    162    163    164    165    166    167    168    169    170
    beta    161    162    163    164    165    167    166    168    169    170
 overlap   0.969  0.995  0.855  0.849  0.995  0.939  0.944  0.990  0.993  0.994


   alpha    171    172    173    174    175    176    177    178    179    180
    beta    171    172    173    174    176    175    177    178    179    180
 overlap   0.996  0.999  0.999  0.883  0.655  0.761  0.999  1.000  0.999  0.951


   alpha    181    182    183    184    185    186    187    188    189    190
    beta    181    182    183    184    185    186    187    188    189    190
 overlap   0.952  0.998  0.991  0.991  0.999  0.998  0.996  0.998  0.999  0.999


   alpha    191    192    193    194    195    196    197    198    199    200
    beta    191    192    193    194    195    196    197    198    199    200
 overlap   0.987  0.987  0.998  0.998  0.999  0.999  0.999  0.999  0.999  1.000


   alpha    201    202    203    204    205    206    207    208    209    210
    beta    201    202    203    204    205    206    207    208    209    210
 overlap   1.000  0.999  0.999  1.000  0.999  0.998  1.000  0.998  0.989  0.988


   alpha    211    212    213    214    215    216    217    218    219    220
    beta    211    212    213    214    215    216    217    218    219    220
 overlap   0.998  0.997  0.997  0.999  0.989  0.989  0.998  0.999  0.993  0.995


   alpha    221    222    223    224    225    226    227    228    229    230
    beta    221    222    223    224    225    226    227    228    229    230
 overlap   0.998  0.999  0.999  0.996  0.996  0.999  1.000  0.999  0.999  1.000


   alpha    231    232    233    234    235    236    237    238    239    240
    beta    231    232    233    234    235    236    237    238    239    240
 overlap   1.000  0.999  1.000  1.000  1.000  0.999  0.999  1.000  1.000  0.999


   alpha    241    242    243    244    245    246    247    248    249    250
    beta    241    242    243    244    245    246    247    248    249    250
 overlap   0.998  1.000  1.000  1.000  0.989  0.978  0.989  1.000  1.000  1.000


   alpha    251    252    253    254    255    256    257    258    259    260
    beta    251    252    253    254    255    256    257    258    259    260
 overlap   0.998  0.998  0.998  0.996  0.996  1.000  1.000  1.000  0.997  0.997


   alpha    261    262    263    264    265    266    267    268    269    270
    beta    261    262    263    265    264    266    267    268    269    270
 overlap   1.000  0.998  0.998  0.981  0.988  0.991  0.996  0.999  0.996  0.997


   alpha    271    272    273    274    275    276    277    278    279    280
    beta    271    272    273    274    275    276    277    278    279    280
 overlap   0.999  1.000  0.958  0.953  0.998  0.987  0.968  0.976  0.984  0.996


   alpha    281    282    283    284    285    286    287    288    289    290
    beta    281    282    283    284    285    286    287    288    289    291
 overlap   0.999  0.993  0.991  0.994  0.995  0.998  0.995  0.995  0.981  0.885


   alpha    291    292    293    294    295    296    297    298    299    300
    beta    290    292    293    294    295    296    297    298    299    300
 overlap   0.893  0.892  0.881  0.983  0.957  0.959  0.953  0.997  0.987  0.968


   alpha    301    302    303    304    305    306    307    308    309    310
    beta    301    302    303    304    305    306    307    308    309    310
 overlap   0.978  0.987  0.999  0.998  0.998  0.991  0.988  1.000  0.995  1.000


   alpha    311    312    313    314    315    316    317    318    319    320
    beta    311    312    313    314    315    316    317    318    319    320
 overlap   0.996  0.993  0.997  0.895  0.893  0.997  0.996  0.997  0.998  0.998


   alpha    321    322    323    324    325    326    327    328    329    330
    beta    321    322    323    324    325    326    327    328    329    330
 overlap   0.993  0.995  1.000  1.000  0.999  0.999  1.000  1.000  1.000  1.000


   alpha    331    332    333    334    335    336    337    338    339    340
    beta    331    332    333    334    335    336    337    338    339    340
 overlap   1.000  1.000  1.000  1.000  1.000  0.999  0.999  1.000  1.000  1.000


   alpha    341    342    343    344    345    346    347    348    349    350
    beta    341    342    343    344    345    346    347    348    349    350
 overlap   1.000  0.999  0.999  1.000  1.000  0.999  1.000  1.000  1.000  1.000


   alpha    351    352    353    354    355
    beta    351    352    353    354    355
 overlap   1.000  1.000  1.000  1.000  1.000

     --------------------------
     Expectation value of S2:  
     --------------------------
      <S2> =      0.7523 (Exact =     0.7500)


 center of mass
 --------------
 x =   1.20397038 y =   1.91556405 z =  -2.24527405

 moments of inertia (a.u.)
 ------------------
         733.951994405491        -125.075400143111          47.321948345391
        -125.075400143111         574.696068461944           2.294165252207
          47.321948345391           2.294165252207         303.143495690870

     Multipole analysis of the density
     ---------------------------------

     L   x y z        total         alpha         beta         nuclear
     -   - - -        -----         -----         ----         -------
     0   0 0 0     -0.000000    -23.000000    -22.000000     45.000000

     1   1 0 0     -0.379977    -27.580212    -26.354400     53.554636
     1   0 1 0     -0.489445    -43.838390    -42.024679     85.373624
     1   0 0 1      1.293757     51.734877     48.531229    -98.972349

     2   2 0 0    -25.297520    -64.216749    -61.575487    100.494716
     2   1 1 0     -3.383952    -86.145181    -82.427690    165.188919
     2   1 0 1      1.264417     74.477203     70.810250   -144.023035
     2   0 2 0    -29.365801   -157.488800   -150.845504    278.968502
     2   0 1 1      1.554588     99.036407     94.837259   -192.319078
     2   0 0 2    -28.148647   -261.510549   -244.262996    477.624898


 Task  times  cpu:      133.3s     wall:      135.8s


                                NWChem Input Module
                                -------------------


 Summary of allocated global arrays
-----------------------------------
  No active global arrays


MA_summarize_allocated_blocks: starting scan ...
heap block 'gridpts', handle 114, address 0x1136f280:
	type of elements:		double precision
	number of elements:		33554432
	address of client space:	0x1136f300
	index for client space:		11495865
	total number of bytes:		268435592
MA_summarize_allocated_blocks: scan completed: 1 heap block, 0 stack blocks
MA usage statistics:

	allocation statistics:
					      heap	     stack
					      ----	     -----
	current number of blocks	         1	         0
	maximum number of blocks	        21	        53
	current total bytes		 268435592	         0
	maximum total bytes		 268982824	  40021144
	maximum total K-bytes		    268983	     40022
	maximum total M-bytes		       269	        41


                                     CITATION
                                     --------
                Please cite the following reference when publishing
                           results obtained with NWChem:

          E. Apra, E. J. Bylaska, W. A. de Jong, N. Govind, K. Kowalski,
       T. P. Straatsma, M. Valiev, H. J. J. van Dam, Y. Alexeev, J. Anchell,
       V. Anisimov, F. W. Aquino, R. Atta-Fynn, J. Autschbach, N. P. Bauman,
     J. C. Becca, D. E. Bernholdt, K. Bhaskaran-Nair, S. Bogatko, P. Borowski,
         J. Boschen, J. Brabec, A. Bruner, E. Cauet, Y. Chen, G. N. Chuev,
      C. J. Cramer, J. Daily, M. J. O. Deegan, T. H. Dunning Jr., M. Dupuis,
   K. G. Dyall, G. I. Fann, S. A. Fischer, A. Fonari, H. Fruchtl, L. Gagliardi,
      J. Garza, N. Gawande, S. Ghosh, K. Glaesemann, A. W. Gotz, J. Hammond,
       V. Helms, E. D. Hermes, K. Hirao, S. Hirata, M. Jacquelin, L. Jensen,
   B. G. Johnson, H. Jonsson, R. A. Kendall, M. Klemm, R. Kobayashi, V. Konkov,
      S. Krishnamoorthy, M. Krishnan, Z. Lin, R. D. Lins, R. J. Littlefield,
      A. J. Logsdail, K. Lopata, W. Ma, A. V. Marenich, J. Martin del Campo,
   D. Mejia-Rodriguez, J. E. Moore, J. M. Mullin, T. Nakajima, D. R. Nascimento,
    J. A. Nichols, P. J. Nichols, J. Nieplocha, A. Otero-de-la-Roza, B. Palmer,
    A. Panyala, T. Pirojsirikul, B. Peng, R. Peverati, J. Pittner, L. Pollack,
   R. M. Richard, P. Sadayappan, G. C. Schatz, W. A. Shelton, D. W. Silverstein,
   D. M. A. Smith, T. A. Soares, D. Song, M. Swart, H. L. Taylor, G. S. Thomas,
            V. Tipparaju, D. G. Truhlar, K. Tsemekhman, T. Van Voorhis,
      A. Vazquez-Mayagoitia, P. Verma, O. Villa, A. Vishnu, K. D. Vogiatzis,
        D. Wang, J. H. Weare, M. J. Williamson, T. L. Windus, K. Wolinski,
        A. T. Wong, Q. Wu, C. Yang, Q. Yu, M. Zacharias, Z. Zhang, Y. Zhao,
                                and R. J. Harrison
                        "NWChem: Past, present, and future
                         J. Chem. Phys. 152, 184102 (2020)
                               doi:10.1063/5.0004997

                                      AUTHORS
                                      -------
  E. Apra, E. J. Bylaska, N. Govind, K. Kowalski, M. Valiev, D. Mejia-Rodriguez,
       A. Kunitsa, N. P. Bauman, A. Panyala, W. A. de Jong, T. P. Straatsma,
   H. J. J. van Dam, D. Wang, T. L. Windus, J. Hammond, J. Autschbach, A. Woods,
    K. Bhaskaran-Nair, J. Brabec, K. Lopata, S. A. Fischer, S. Krishnamoorthy,
     M. Jacquelin, W. Ma, M. Klemm, O. Villa, Y. Chen, V. Anisimov, F. Aquino,
     S. Hirata, M. T. Hackler, E. Hermes, L. Jensen, J. E. Moore, J. C. Becca,
      V. Konjkov, T. Risthaus, M. Malagoli, A. Marenich, A. Otero-de-la-Roza,
        J. Mullin, P. Nichols, R. Peverati, J. Pittner, Y. Zhao, P.-D. Fan,
        A. Fonari, M. J. Williamson, R. J. Harrison, J. R. Rehr, M. Dupuis,
     D. Silverstein, D. M. A. Smith, J. Nieplocha, V. Tipparaju, M. Krishnan,
     B. E. Van Kuiken, A. Vazquez-Mayagoitia, M. Swart, Q. Wu, T. Van Voorhis,
     A. A. Auer, M. Nooijen, L. D. Crosby, E. Brown, G. Cisneros, G. I. Fann,
   H. Fruchtl, J. Garza, K. Hirao, R. A. Kendall, J. A. Nichols, K. Tsemekhman,
    K. Wolinski, J. Anchell, D. E. Bernholdt, P. Borowski, T. Clark, D. Clerc,
   H. Dachsel, M. J. O. Deegan, K. Dyall, D. Elwood, E. Glendening, M. Gutowski,
   A. C. Hess, J. Jaffe, B. G. Johnson, J. Ju, R. Kobayashi, R. Kutteh, Z. Lin,
   R. Littlefield, X. Long, B. Meng, T. Nakajima, S. Niu, L. Pollack, M. Rosing,
   K. Glaesemann, G. Sandrone, M. Stave, H. Taylor, G. Thomas, J. H. van Lenthe,
                               A. T. Wong, Z. Zhang.

 Total times  cpu:      133.5s     wall:      136.0s
