 argument  1 = m1e/mol.nwi
                                         
                                         


             Northwest Computational Chemistry Package (NWChem) 7.2.2
             --------------------------------------------------------


                    Environmental Molecular Sciences Laboratory
                       Pacific Northwest National Laboratory
                                Richland, WA 99352

                              Copyright (c) 1994-2022
                       Pacific Northwest National Laboratory
                            Battelle Memorial Institute

             NWChem is an open-source computational chemistry package
                        distributed under the terms of the
                      Educational Community License (ECL) 2.0
             A copy of the license is included with this distribution
                              in the LICENSE.TXT file

                                  ACKNOWLEDGMENT
                                  --------------

            This software and its documentation were developed at the
            EMSL at Pacific Northwest National Laboratory, a multiprogram
            national laboratory, operated for the U.S. Department of Energy
            by Battelle under Contract Number DE-AC05-76RL01830. Support
            for this work was provided by the Department of Energy Office
            of Biological and Environmental Research, Office of Basic
            Energy Sciences, and the Office of Advanced Scientific Computing.


           Job information
           ---------------

    hostname        = r375.ib.bridges2.psc.edu
    program         = nwchem
    date            = Tue Oct  1 15:09:29 2024

    compiled        = Mon_Mar_18_17:03:37_2024
    source          = /ocean/projects/pscstaff/mmadrid/nwchem-7.2.2
    nwchem branch   = 7.2.2
    nwchem revision = 74936fb9
    ga revision     = 5.8.0
    use scalapack   = F
    input           = m1e/mol.nwi
    prefix          = dft.
    data base       = .//dft.db
    status          = startup
    nproc           =       15
    time left       =     -1s



           Memory information
           ------------------

    heap     =   67108858 doubles =    512.0 Mbytes
    stack    =   67108863 doubles =    512.0 Mbytes
    global   =  134217728 doubles =   1024.0 Mbytes (distinct from heap & stack)
    total    =  268435449 doubles =   2048.0 Mbytes
    verify   = yes
    hardfail = no 


           Directory information
           ---------------------

  0 permanent = ./
  0 scratch   = /jet/home/hmt47/nwchem_scratch/




                                NWChem Input Module
                                -------------------


  library name resolved from: environment
  library file name is: </opt/packages/nwchem/nwchem7.2.2/share/nwchem/libraries/>
  


 Summary of "ao basis" -> "" (cartesian)
 ------------------------------------------------------------------------------
       Tag                 Description            Shells   Functions and Types
 ---------------- ------------------------------  ------  ---------------------
 *                        aug-cc-pVTZ                 on all atoms 


  pbe96 is a nonlocal functional; adding pw91lda local functional. 

 Scaling coordinates for geometry "geometry" by  1.889725989
 (inverse scale =  0.529177249)



                             Geometry "geometry" -> ""
                             -------------------------

 Output coordinates in angstroms (scale by  1.889725989 to convert to a.u.)

  No.       Tag          Charge          X              Y              Z
 ---- ---------------- ---------- -------------- -------------- --------------
    1 S                   16.0000     0.00000000     0.00000000     0.00000000
    2 O                    8.0000     0.01077000     1.43865700    -0.37318900
    3 O                    8.0000     1.24500600    -0.70785700    -0.41338700
    4 O                    8.0000    -0.06929100    -0.08385900     1.56900600
    5 O                    8.0000    -1.24243500    -0.70463800    -0.39862700
    6 H                    1.0000     0.75446900     0.27853400     2.00146900

      Atomic Mass 
      ----------- 

      S                 31.972070
      O                 15.994910
      H                  1.007825


 Effective nuclear repulsion energy (a.u.)     275.0412717854

            Nuclear Dipole moment (a.u.) 
            ----------------------------
        X                 Y               Z
 ---------------- ---------------- ----------------
     0.5798983244    -0.3458992244     9.5844880134


            XYZ format geometry
            -------------------
     6
 geometry
 S                     0.00000000     0.00000000     0.00000000
 O                     0.01077000     1.43865700    -0.37318900
 O                     1.24500600    -0.70785700    -0.41338700
 O                    -0.06929100    -0.08385900     1.56900600
 O                    -1.24243500    -0.70463800    -0.39862700
 H                     0.75446900     0.27853400     2.00146900

 ==============================================================================
                                internuclear distances
 ------------------------------------------------------------------------------
       center one      |      center two      | atomic units |  angstroms
 ------------------------------------------------------------------------------
    2 O                |   1 S                |     2.80872  |     1.48631
    3 O                |   1 S                |     2.81689  |     1.49063
    4 O                |   1 S                |     2.97211  |     1.57277
    5 O                |   1 S                |     2.80232  |     1.48292
    6 H                |   4 O                |     1.88683  |     0.99847
 ------------------------------------------------------------------------------
                         number of included internuclear distances:          5
 ==============================================================================



 ==============================================================================
                                 internuclear angles
 ------------------------------------------------------------------------------
        center 1       |       center 2       |       center 3       |  degrees
 ------------------------------------------------------------------------------
    2 O                |   1 S                |   3 O                |   112.58
    2 O                |   1 S                |   4 O                |   107.60
    2 O                |   1 S                |   5 O                |   113.49
    3 O                |   1 S                |   4 O                |   106.75
    3 O                |   1 S                |   5 O                |   113.55
    4 O                |   1 S                |   5 O                |   101.88
    1 S                |   4 O                |   6 H                |   112.11
 ------------------------------------------------------------------------------
                            number of included internuclear angles:          7
 ==============================================================================





                           NWChem Geometry Optimization
                           ----------------------------


 maximum gradient threshold         (gmax) =   0.000450
 rms gradient threshold             (grms) =   0.000300
 maximum cartesian step threshold   (xmax) =   0.001800
 rms cartesian step threshold       (xrms) =   0.001200
 fixed trust radius                (trust) =   0.300000
 maximum step size to saddle      (sadstp) =   0.100000
 energy precision                  (eprec) =   5.0D-06
 maximum number of steps          (nptopt) =   40
 initial hessian option           (inhess) =    0
 line search option               (linopt) =    1
 hessian update option            (modupd) =    1
 saddle point option              (modsad) =    0
 initial eigen-mode to follow     (moddir) =    0
 initial variable to follow       (vardir) =    0
 follow first negative mode     (firstneg) =    T
 apply conjugacy                    (opcg) =    F
 source of zmatrix                         =           


          -------------------
          Energy Minimization
          -------------------


 Using diagonal initial Hessian 

          --------
          Step   0
          --------


                         Geometry "geometry" -> "geometry"
                         ---------------------------------

 Output coordinates in angstroms (scale by  1.889725989 to convert to a.u.)

  No.       Tag          Charge          X              Y              Z
 ---- ---------------- ---------- -------------- -------------- --------------
    1 S                   16.0000     0.00000000     0.00000000     0.00000000
    2 O                    8.0000     0.01077000     1.43865700    -0.37318900
    3 O                    8.0000     1.24500600    -0.70785700    -0.41338700
    4 O                    8.0000    -0.06929100    -0.08385900     1.56900600
    5 O                    8.0000    -1.24243500    -0.70463800    -0.39862700
    6 H                    1.0000     0.75446900     0.27853400     2.00146900

      Atomic Mass 
      ----------- 

      S                 31.972070
      O                 15.994910
      H                  1.007825


 Effective nuclear repulsion energy (a.u.)     275.0412717854

            Nuclear Dipole moment (a.u.) 
            ----------------------------
        X                 Y               Z
 ---------------- ---------------- ----------------
     0.5798983244    -0.3458992244     9.5844880134


                                 NWChem DFT Module
                                 -----------------


                      Basis "ao basis" -> "ao basis" (cartesian)
                      -----
  S (Sulphur)
  -----------
            Exponent  Coefficients 
       -------------- ---------------------------------------------------------
  1 S  3.74100000E+05  0.000054
  1 S  5.60500000E+04  0.000421
  1 S  1.27600000E+04  0.002207
  1 S  3.61500000E+03  0.009193
  1 S  1.18300000E+03  0.032112
  1 S  4.28800000E+02  0.094668
  1 S  1.67800000E+02  0.223630
  1 S  6.94700000E+01  0.374393
  1 S  2.98400000E+01  0.329108
  1 S  1.27200000E+01  0.084704
  1 S  5.24400000E+00  0.000441
  1 S  2.21900000E+00  0.001648
  1 S  3.49000000E-01  0.000301

  2 S  3.74100000E+05 -0.000015
  2 S  5.60500000E+04 -0.000116
  2 S  1.27600000E+04 -0.000612
  2 S  3.61500000E+03 -0.002554
  2 S  1.18300000E+03 -0.009087
  2 S  4.28800000E+02 -0.027705
  2 S  1.67800000E+02 -0.072002
  2 S  6.94700000E+01 -0.146439
  2 S  2.98400000E+01 -0.195150
  2 S  1.27200000E+01  0.008192
  2 S  5.24400000E+00  0.516601
  2 S  2.21900000E+00  0.542178
  2 S  3.49000000E-01 -0.009181

  3 S  3.74100000E+05  0.000004
  3 S  5.60500000E+04  0.000034
  3 S  1.27600000E+04  0.000178
  3 S  3.61500000E+03  0.000741
  3 S  1.18300000E+03  0.002646
  3 S  4.28800000E+02  0.008075
  3 S  1.67800000E+02  0.021228
  3 S  6.94700000E+01  0.043832
  3 S  2.98400000E+01  0.061272
  3 S  1.27200000E+01 -0.003615
  3 S  5.24400000E+00 -0.204510
  3 S  2.21900000E+00 -0.381871
  3 S  3.49000000E-01  0.714147

  4 S  7.76700000E-01  1.000000

  5 S  1.32200000E-01  1.000000

  6 S  4.97000000E-02  1.000000

  7 P  5.74400000E+02  0.002423
  7 P  1.35800000E+02  0.019280
  7 P  4.31900000E+01  0.088540
  7 P  1.58700000E+01  0.254654
  7 P  6.20800000E+00  0.433984
  7 P  2.48300000E+00  0.354953
  7 P  3.22900000E-01 -0.005030

  8 P  5.74400000E+02 -0.000620
  8 P  1.35800000E+02 -0.004939
  8 P  4.31900000E+01 -0.023265
  8 P  1.58700000E+01 -0.068520
  8 P  6.20800000E+00 -0.123896
  8 P  2.48300000E+00 -0.096950
  8 P  3.22900000E-01  0.569394

  9 P  8.68800000E-01  1.000000

 10 P  1.09800000E-01  1.000000

 11 P  3.51000000E-02  1.000000

 12 D  2.69000000E-01  1.000000

 13 D  8.19000000E-01  1.000000

 14 D  1.01000000E-01  1.000000

 15 F  5.57000000E-01  1.000000

 16 F  2.18000000E-01  1.000000

  O (Oxygen)
  ----------
            Exponent  Coefficients 
       -------------- ---------------------------------------------------------
  1 S  1.53300000E+04  0.000508
  1 S  2.29900000E+03  0.003929
  1 S  5.22400000E+02  0.020243
  1 S  1.47300000E+02  0.079181
  1 S  4.75500000E+01  0.230687
  1 S  1.67600000E+01  0.433118
  1 S  6.20700000E+00  0.350260
  1 S  6.88200000E-01 -0.008154

  2 S  1.53300000E+04 -0.000115
  2 S  2.29900000E+03 -0.000895
  2 S  5.22400000E+02 -0.004636
  2 S  1.47300000E+02 -0.018724
  2 S  4.75500000E+01 -0.058463
  2 S  1.67600000E+01 -0.136463
  2 S  6.20700000E+00 -0.175740
  2 S  6.88200000E-01  0.603418

  3 S  1.75200000E+00  1.000000

  4 S  2.38400000E-01  1.000000

  5 S  7.37600000E-02  1.000000

  6 P  3.44600000E+01  0.015928
  6 P  7.74900000E+00  0.099740
  6 P  2.28000000E+00  0.310492

  7 P  7.15600000E-01  1.000000

  8 P  2.14000000E-01  1.000000

  9 P  5.97400000E-02  1.000000

 10 D  2.31400000E+00  1.000000

 11 D  6.45000000E-01  1.000000

 12 D  2.14000000E-01  1.000000

 13 F  1.42800000E+00  1.000000

 14 F  5.00000000E-01  1.000000

  H (Hydrogen)
  ------------
            Exponent  Coefficients 
       -------------- ---------------------------------------------------------
  1 S  3.38700000E+01  0.006068
  1 S  5.09500000E+00  0.045308
  1 S  1.15900000E+00  0.202822

  2 S  3.25800000E-01  1.000000

  3 S  1.02700000E-01  1.000000

  4 S  2.52600000E-02  1.000000

  5 P  1.40700000E+00  1.000000

  6 P  3.88000000E-01  1.000000

  7 P  1.02000000E-01  1.000000

  8 D  1.05700000E+00  1.000000

  9 D  2.47000000E-01  1.000000



 Summary of "ao basis" -> "ao basis" (cartesian)
 ------------------------------------------------------------------------------
       Tag                 Description            Shells   Functions and Types
 ---------------- ------------------------------  ------  ---------------------
 S                        aug-cc-pVTZ               16       59   6s5p3d2f
 O                        aug-cc-pVTZ               14       55   5s4p3d2f
 H                        aug-cc-pVTZ                9       25   4s3p2d




 Summary of "ao basis" -> "ao basis" (cartesian)
 ------------------------------------------------------------------------------
       Tag                 Description            Shells   Functions and Types
 ---------------- ------------------------------  ------  ---------------------
 S                        aug-cc-pVTZ               16       59   6s5p3d2f
 O                        aug-cc-pVTZ               14       55   5s4p3d2f
 H                        aug-cc-pVTZ                9       25   4s3p2d


  Caching 1-el integrals 

            General Information
            -------------------
          SCF calculation type: DFT
          Wavefunction type:  closed shell.
          No. of atoms     :     6
          No. of electrons :    50
           Alpha electrons :    25
            Beta electrons :    25
          Charge           :    -1
          Spin multiplicity:     1
          Use of symmetry is: off; symmetry adaption is: off
          Maximum number of iterations: 200
          AO basis - number of functions:   304
                     number of shells:    81
          Convergence on energy requested:  1.00D-06
          Convergence on density requested:  1.00D-05
          Convergence on gradient requested:  5.00D-04

              XC Information
              --------------
          PerdewBurkeErnzerhof Exchange Functional  1.000          
            Perdew 1991 LDA Correlation Functional  1.000 local    
           PerdewBurkeErnz. Correlation Functional  1.000 non-local

             Grid Information
             ----------------
          Grid used for XC integration:  medium    
          Radial quadrature: Mura-Knowles        
          Angular quadrature: Lebedev. 
          Tag              B.-S. Rad. Rad. Pts. Rad. Cut. Ang. Pts.
          ---              ---------- --------- --------- ---------
          S                   1.00       88          13.0       590
          O                   0.60       49          14.0       434
          H                   0.35       45          13.0       434
          Grid pruning is: on 
          Number of quadrature shells:   329
          Spatial weights used:  Erf1

          Convergence Information
          -----------------------
          Convergence aids based upon iterative change in 
          total energy or number of iterations. 
          Levelshifting, if invoked, occurs when the 
          HOMO/LUMO gap drops below (HL_TOL):  1.00D-02
          DIIS, if invoked, will attempt to extrapolate 
          using up to (NFOCK): 10 stored Fock matrices.

                    Damping(40%)  Levelshifting(0.0)       DIIS
                  --------------- ------------------- ---------------
          dE  on:    start            0.00D+00            start   
          dE off:  200 iters          0.00D+00          200 iters 


      Screening Tolerance Information
      -------------------------------
          Density screening/tol_rho:  1.00D-10
          AO Gaussian exp screening on grid/accAOfunc:  14
          CD Gaussian exp screening on grid/accCDfunc:  20
          XC Gaussian exp screening on grid/accXCfunc:  20
          Schwarz screening/accCoul:  1.00D-08


 Forcing the number of linearly dependent vectors to be  0

      Superposition of Atomic Density Guess
      -------------------------------------

 Sum of atomic energies:        -697.11195596
   Time after variat. SCF:      0.7
   Time prior to 1st pass:      0.7

 Grid_pts file          = /jet/home/hmt47/nwchem_scratch//dft.gridpts.00
 Record size in doubles =  12289        No. of grid_pts per rec  =   3070
 Max. records in memory =      6        Max. recs in file   =  67550051

 Grid integrated density:      49.000001767077
 Requested integration accuracy:   0.10E-05

           Memory utilization after 1st SCF pass: 
           Heap Space remaining (MW):       33.47            33472698
          Stack Space remaining (MW):       67.11            67107236

   convergence    iter        energy       DeltaE   RMS-Dens  Diis-err    time
 ---------------- ----- ----------------- --------- --------- ---------  ------
 d=40,ls=0.0,diis     1   -700.4988050840 -9.76D+02  1.31D-02  6.19D+01     1.6
 Grid integrated density:      49.600001704418
 Requested integration accuracy:   0.10E-05
 d=40,ls=0.0,diis     2   -699.8091601211  6.90D-01  2.04D-01  1.09D+01     5.4
 Grid integrated density:      49.840000920879
 Requested integration accuracy:   0.10E-05
 d=40,ls=0.0,diis     3   -698.5267432138  1.28D+00  1.22D-01  6.92D+00     9.3
 Grid integrated density:      49.936000887454
 Requested integration accuracy:   0.10E-05
 d=40,ls=0.0,diis     4   -699.2494449569 -7.23D-01  4.88D-02  1.09D+00    13.1
 Grid integrated density:      49.974400898698
 Requested integration accuracy:   0.10E-05
 d=40,ls=0.0,diis     5   -699.3846388217 -1.35D-01  1.95D-02  1.34D-01    16.9
 Grid integrated density:      49.989761015875
 Requested integration accuracy:   0.10E-05
  Resetting Diis
 d=40,ls=0.0,diis     6   -699.4176006939 -3.30D-02  7.80D-03  2.32D-02    21.0
 Grid integrated density:      49.995905248400
 Requested integration accuracy:   0.10E-05
 d=40,ls=0.0,diis     7   -699.4295717070 -1.20D-02  3.13D-03  4.12D-03    24.8
 Grid integrated density:      49.998362868238
 Requested integration accuracy:   0.10E-05
 d=40,ls=0.0,diis     8   -699.4338658156 -4.29D-03  1.25D-03  2.59D-03    28.6
 Grid integrated density:      49.999345893594
 Requested integration accuracy:   0.10E-05
 d=40,ls=0.0,diis     9   -699.4358970673 -2.03D-03  5.06D-04  3.43D-04    32.4
 Grid integrated density:      49.999739106088
 Requested integration accuracy:   0.10E-05
 d=40,ls=0.0,diis    10   -699.4366701633 -7.73D-04  2.04D-04  1.75D-04    36.3
 Grid integrated density:      49.999896389772
 Requested integration accuracy:   0.10E-05
 d=40,ls=0.0,diis    11   -699.4369954043 -3.25D-04  8.40D-05  2.70D-05    40.1
 d=40,ls=0.0,diis    12   -699.4371236051 -1.28D-04  3.47D-05  4.99D-06    43.9
 d=40,ls=0.0,diis    13   -699.4371746951 -5.11D-05  1.52D-05  7.27D-07    47.7
 d=40,ls=0.0,diis    14   -699.4371950779 -2.04D-05  7.39D-06  1.13D-07    51.5
 d=40,ls=0.0,diis    15   -699.4372032245 -8.15D-06  3.25D-06  1.84D-08    55.3
 d=40,ls=0.0,diis    16   -699.4372064822 -3.26D-06  1.33D-06  2.97D-09    59.1
 d=40,ls=0.0,diis    17   -699.4372077852 -1.30D-06  5.22D-07  4.73D-10    62.9
 d=40,ls=0.0,diis    18   -699.4372083064 -5.21D-07  2.13D-07  7.44D-11    66.8


         Total DFT energy =     -699.437208306352
      One electron energy =    -1522.111486408588
           Coulomb energy =      607.937099465129
    Exchange-Corr. energy =      -60.304093148277
 Nuclear repulsion energy =      275.041271785383

 Numeric. integr. density =       50.000001074246

     Total iterative time =     66.1s



                       DFT Final Molecular Orbital Analysis
                       ------------------------------------

 Vector    1  Occ=2.000000D+00  E=-8.807914D+01
              MO Center=  4.0D-07,  3.0D-07,  1.2D-06, r^2= 3.6D-03
   Bfn.  Coefficient  Atom+Function         Bfn.  Coefficient  Atom+Function  
  ----- ------------  ---------------      ----- ------------  ---------------
     1      1.006062  1 S  s                  5     -0.196182  1 S  s          
     3      0.053048  1 S  s                173      0.045010  4 O  s          
   118      0.043642  3 O  s                 63      0.042965  2 O  s          
   228      0.043118  5 O  s                  2      0.039748  1 S  s          
   183     -0.037113  4 O  pz                72     -0.028693  2 O  py         

 Vector    2  Occ=2.000000D+00  E=-1.862849D+01
              MO Center= -6.9D-02, -8.4D-02,  1.6D+00, r^2= 1.5D-02
   Bfn.  Coefficient  Atom+Function         Bfn.  Coefficient  Atom+Function  
  ----- ------------  ---------------      ----- ------------  ---------------
   170      0.981016  4 O  s                173     -0.068399  4 O  s          
   172      0.063538  4 O  s                  5      0.063176  1 S  s          

 Vector    3  Occ=2.000000D+00  E=-1.853614D+01
              MO Center=  1.1D-02,  1.4D+00, -3.7D-01, r^2= 1.6D-02
   Bfn.  Coefficient  Atom+Function         Bfn.  Coefficient  Atom+Function  
  ----- ------------  ---------------      ----- ------------  ---------------
    60      0.979085  2 O  s                 63     -0.068191  2 O  s          
    62      0.063755  2 O  s                  6      0.041499  1 S  s          
     5      0.041202  1 S  s                 17     -0.037652  1 S  py         
   173     -0.028918  4 O  s          

 Vector    4  Occ=2.000000D+00  E=-1.853546D+01
              MO Center=  1.2D+00, -7.1D-01, -4.1D-01, r^2= 1.6D-02
   Bfn.  Coefficient  Atom+Function         Bfn.  Coefficient  Atom+Function  
  ----- ------------  ---------------      ----- ------------  ---------------
   115      0.979011  3 O  s                118     -0.067941  3 O  s          
   117      0.063763  3 O  s                  5      0.043528  1 S  s          
     6      0.042142  1 S  s                 16     -0.037679  1 S  px         
   173     -0.025574  4 O  s          

 Vector    5  Occ=2.000000D+00  E=-1.853499D+01
              MO Center= -1.2D+00, -7.0D-01, -4.0D-01, r^2= 1.5D-02
   Bfn.  Coefficient  Atom+Function         Bfn.  Coefficient  Atom+Function  
  ----- ------------  ---------------      ----- ------------  ---------------
   225      0.978845  5 O  s                228     -0.073836  5 O  s          
   227      0.063209  5 O  s                  5      0.046298  1 S  s          
    16      0.033580  1 S  px         

 Vector    6  Occ=2.000000D+00  E=-7.661042D+00
              MO Center= -4.8D-05, -5.1D-05,  1.4D-03, r^2= 7.7D-02
   Bfn.  Coefficient  Atom+Function         Bfn.  Coefficient  Atom+Function  
  ----- ------------  ---------------      ----- ------------  ---------------
     2      0.890065  1 S  s                  5      0.169045  1 S  s          
     4      0.119577  1 S  s                  3     -0.060356  1 S  s          
   118     -0.053487  3 O  s                 63     -0.053086  2 O  s          
   228     -0.053067  5 O  s                173     -0.049283  4 O  s          
   183      0.040667  4 O  pz                72      0.034179  2 O  py         

 Vector    7  Occ=2.000000D+00  E=-5.684853D+00
              MO Center=  5.7D-05,  4.5D-05, -1.2D-03, r^2= 6.9D-02
   Bfn.  Coefficient  Atom+Function         Bfn.  Coefficient  Atom+Function  
  ----- ------------  ---------------      ----- ------------  ---------------
     9      1.096138  1 S  pz                12      0.283443  1 S  pz         
   173     -0.102887  4 O  s                183      0.099111  4 O  pz         
    47     -0.095988  1 S  fyyz              42     -0.093808  1 S  fxxz       
    49     -0.089081  1 S  fzzz               7     -0.055871  1 S  px         
    27      0.055937  1 S  dzz              174     -0.050926  4 O  s          

 Vector    8  Occ=2.000000D+00  E=-5.681073D+00
              MO Center= -2.7D-05, -2.4D-05,  6.3D-05, r^2= 6.9D-02
   Bfn.  Coefficient  Atom+Function         Bfn.  Coefficient  Atom+Function  
  ----- ------------  ---------------      ----- ------------  ---------------
     7      1.086661  1 S  px                10      0.310382  1 S  px         
     8      0.240154  1 S  py               228      0.123036  5 O  s          
    45     -0.098744  1 S  fxzz              40     -0.093774  1 S  fxxx       
    43     -0.094171  1 S  fxyy              23     -0.078322  1 S  dxy        
    11      0.072505  1 S  py               236      0.070164  5 O  px         

 Vector    9  Occ=2.000000D+00  E=-5.681041D+00
              MO Center=  8.1D-06,  2.0D-05,  6.7D-05, r^2= 6.9D-02
   Bfn.  Coefficient  Atom+Function         Bfn.  Coefficient  Atom+Function  
  ----- ------------  ---------------      ----- ------------  ---------------
     8      1.083577  1 S  py                11      0.302318  1 S  py         
     7     -0.237003  1 S  px                48     -0.098396  1 S  fyzz       
    63     -0.097741  2 O  s                 41     -0.092698  1 S  fxxy       
    46     -0.092704  1 S  fyyy             118      0.073870  3 O  s          
    10     -0.062302  1 S  px                72      0.062311  2 O  py         

 Vector   10  Occ=2.000000D+00  E=-8.734776D-01
              MO Center=  1.4D-02, -1.1D-02,  5.3D-01, r^2= 1.5D+00
   Bfn.  Coefficient  Atom+Function         Bfn.  Coefficient  Atom+Function  
  ----- ------------  ---------------      ----- ------------  ---------------
     5      0.411928  1 S  s                  3     -0.351568  1 S  s          
   171     -0.295047  4 O  s                173     -0.289555  4 O  s          
    63     -0.211575  2 O  s                118     -0.210191  3 O  s          
   228     -0.210162  5 O  s                226     -0.135262  5 O  s          
    61     -0.132867  2 O  s                116     -0.131599  3 O  s          

 Vector   11  Occ=2.000000D+00  E=-7.619609D-01
              MO Center=  3.6D-02,  1.5D-02,  6.3D-01, r^2= 1.9D+00
   Bfn.  Coefficient  Atom+Function         Bfn.  Coefficient  Atom+Function  
  ----- ------------  ---------------      ----- ------------  ---------------
   171      0.358116  4 O  s                  5      0.196123  1 S  s          
     3     -0.181917  1 S  s                 61     -0.168654  2 O  s          
   228     -0.168324  5 O  s                173      0.166871  4 O  s          
   226     -0.165479  5 O  s                 63     -0.159814  2 O  s          
   116     -0.156817  3 O  s                118     -0.150782  3 O  s          

 Vector   12  Occ=2.000000D+00  E=-6.971724D-01
              MO Center= -5.3D-01, -5.3D-02, -2.9D-01, r^2= 1.6D+00
   Bfn.  Coefficient  Atom+Function         Bfn.  Coefficient  Atom+Function  
  ----- ------------  ---------------      ----- ------------  ---------------
   226      0.369454  5 O  s                 61     -0.252979  2 O  s          
   228      0.239732  5 O  s                 63     -0.171312  2 O  s          
    13     -0.124945  1 S  px               116     -0.123688  3 O  s          
    14     -0.108775  1 S  py               227      0.102158  5 O  s          
     7      0.090805  1 S  px               118     -0.083985  3 O  s          

 Vector   13  Occ=2.000000D+00  E=-6.947813D-01
              MO Center=  5.7D-01,  5.8D-02, -3.0D-01, r^2= 1.5D+00
   Bfn.  Coefficient  Atom+Function         Bfn.  Coefficient  Atom+Function  
  ----- ------------  ---------------      ----- ------------  ---------------
   116      0.364902  3 O  s                 61     -0.282618  2 O  s          
   118      0.246782  3 O  s                 63     -0.188461  2 O  s          
    14     -0.122365  1 S  py                13      0.107336  1 S  px         
   117      0.100640  3 O  s                  8      0.089863  1 S  py         
     7     -0.078414  1 S  px                62     -0.077855  2 O  s          

 Vector   14  Occ=2.000000D+00  E=-4.093247D-01
              MO Center=  2.5D-02, -2.7D-02,  1.1D+00, r^2= 1.8D+00
   Bfn.  Coefficient  Atom+Function         Bfn.  Coefficient  Atom+Function  
  ----- ------------  ---------------      ----- ------------  ---------------
     3      0.247006  1 S  s                177     -0.225672  4 O  pz         
   180     -0.217734  4 O  pz               281     -0.162315  6 H  s          
    15      0.151420  1 S  pz               226     -0.151082  5 O  s          
   280     -0.129505  6 H  s                175     -0.111274  4 O  px         
    61     -0.106595  2 O  s                116     -0.102797  3 O  s          

 Vector   15  Occ=2.000000D+00  E=-2.844946D-01
              MO Center=  2.2D-01,  9.8D-02,  1.2D-01, r^2= 2.9D+00
   Bfn.  Coefficient  Atom+Function         Bfn.  Coefficient  Atom+Function  
  ----- ------------  ---------------      ----- ------------  ---------------
     3      0.300425  1 S  s                  6      0.204741  1 S  s          
   116     -0.195412  3 O  s                 61     -0.188431  2 O  s          
   174     -0.163654  4 O  s                118     -0.153170  3 O  s          
    63     -0.148067  2 O  s                175      0.139254  4 O  px         
   178      0.131322  4 O  px               119     -0.125042  3 O  s          

 Vector   16  Occ=2.000000D+00  E=-2.420939D-01
              MO Center= -3.5D-01, -2.2D-01,  5.1D-01, r^2= 2.4D+00
   Bfn.  Coefficient  Atom+Function         Bfn.  Coefficient  Atom+Function  
  ----- ------------  ---------------      ----- ------------  ---------------
   173      0.205400  4 O  s                226     -0.182136  5 O  s          
   175     -0.158763  4 O  px               178     -0.153960  4 O  px         
    15     -0.149126  1 S  pz               228     -0.143132  5 O  s          
   171      0.129664  4 O  s                180      0.126589  4 O  pz         
   230      0.125780  5 O  px               233      0.124918  5 O  px         

 Vector   17  Occ=2.000000D+00  E=-2.283632D-01
              MO Center=  2.5D-01,  2.0D-01,  7.7D-02, r^2= 2.7D+00
   Bfn.  Coefficient  Atom+Function         Bfn.  Coefficient  Atom+Function  
  ----- ------------  ---------------      ----- ------------  ---------------
    14      0.192789  1 S  py                61     -0.160762  2 O  s          
   179      0.150433  4 O  py               176      0.149228  4 O  py         
   116      0.147130  3 O  s                 63     -0.138460  2 O  s          
    66     -0.136604  2 O  py                69     -0.136274  2 O  py         
   118      0.131645  3 O  s                120      0.131909  3 O  px         

 Vector   18  Occ=2.000000D+00  E=-1.892505D-01
              MO Center= -2.2D-01, -2.0D-01,  1.8D-01, r^2= 2.9D+00
   Bfn.  Coefficient  Atom+Function         Bfn.  Coefficient  Atom+Function  
  ----- ------------  ---------------      ----- ------------  ---------------
   228      0.174953  5 O  s                173      0.170636  4 O  s          
    13      0.168072  1 S  px               175     -0.152260  4 O  px         
   178     -0.147614  4 O  px               230     -0.147197  5 O  px         
   233     -0.141263  5 O  px               121      0.123325  3 O  py         
   226      0.123603  5 O  s                124      0.121842  3 O  py         

 Vector   19  Occ=2.000000D+00  E=-1.490479D-01
              MO Center=  1.5D-01,  1.1D-01,  8.3D-01, r^2= 2.3D+00
   Bfn.  Coefficient  Atom+Function         Bfn.  Coefficient  Atom+Function  
  ----- ------------  ---------------      ----- ------------  ---------------
   179      0.272175  4 O  py               176      0.269024  4 O  py         
   182      0.182521  4 O  py                66      0.143254  2 O  py         
    69      0.134595  2 O  py               120     -0.128116  3 O  px         
   178     -0.122938  4 O  px                32      0.122079  1 S  dyz        
   123     -0.122414  3 O  px               175     -0.121545  4 O  px         

 Vector   20  Occ=2.000000D+00  E=-1.106098D-01
              MO Center= -1.7D-01, -4.9D-02, -6.3D-02, r^2= 2.8D+00
   Bfn.  Coefficient  Atom+Function         Bfn.  Coefficient  Atom+Function  
  ----- ------------  ---------------      ----- ------------  ---------------
   232      0.201720  5 O  pz               235      0.197822  5 O  pz         
     5      0.176774  1 S  s                177      0.168725  4 O  pz         
    67      0.166041  2 O  pz               180      0.166850  4 O  pz         
    70      0.163102  2 O  pz               122      0.152895  3 O  pz         
   125      0.149755  3 O  pz                18      0.124750  1 S  pz         

 Vector   21  Occ=2.000000D+00  E=-9.954457D-02
              MO Center=  3.4D-01,  2.4D-01, -3.8D-01, r^2= 2.5D+00
   Bfn.  Coefficient  Atom+Function         Bfn.  Coefficient  Atom+Function  
  ----- ------------  ---------------      ----- ------------  ---------------
    65      0.212455  2 O  px                68      0.211322  2 O  px         
    29      0.173502  1 S  dxy               23      0.156765  1 S  dxy        
   120      0.154017  3 O  px               123      0.149449  3 O  px         
    71      0.144914  2 O  px               124      0.143088  3 O  py         
   121      0.141733  3 O  py               127      0.121130  3 O  py         

 Vector   22  Occ=2.000000D+00  E=-9.840232D-02
              MO Center= -2.2D-01, -1.7D-01, -3.9D-01, r^2= 2.6D+00
   Bfn.  Coefficient  Atom+Function         Bfn.  Coefficient  Atom+Function  
  ----- ------------  ---------------      ----- ------------  ---------------
   231      0.206911  5 O  py               234      0.205629  5 O  py         
   121      0.160152  3 O  py               124      0.155825  3 O  py         
   237      0.143782  5 O  py               230     -0.113097  5 O  px         
   233     -0.113060  5 O  px               122      0.109867  3 O  pz         
   125      0.108163  3 O  pz                65     -0.107244  2 O  px         

 Vector   23  Occ=2.000000D+00  E=-5.704939D-02
              MO Center= -4.1D-01, -3.3D-01, -2.3D-01, r^2= 2.5D+00
   Bfn.  Coefficient  Atom+Function         Bfn.  Coefficient  Atom+Function  
  ----- ------------  ---------------      ----- ------------  ---------------
   235      0.255774  5 O  pz               232      0.253261  5 O  pz         
   238      0.203935  5 O  pz               125     -0.151778  3 O  pz         
   122     -0.149526  3 O  pz               128     -0.122520  3 O  pz         
   230     -0.122195  5 O  px               233     -0.119858  5 O  px         
    70     -0.118855  2 O  pz                67     -0.117012  2 O  pz         

 Vector   24  Occ=2.000000D+00  E=-4.824463D-02
              MO Center=  3.8D-01,  2.7D-01, -9.1D-02, r^2= 2.6D+00
   Bfn.  Coefficient  Atom+Function         Bfn.  Coefficient  Atom+Function  
  ----- ------------  ---------------      ----- ------------  ---------------
    70      0.229894  2 O  pz                67      0.227528  2 O  pz         
   125     -0.214159  3 O  pz               122     -0.212314  3 O  pz         
    73      0.195802  2 O  pz               128     -0.183654  3 O  pz         
   179     -0.147966  4 O  py               176     -0.142584  4 O  py         
   182     -0.121231  4 O  py                66      0.102064  2 O  py         

 Vector   25  Occ=2.000000D+00  E=-2.355430D-02
              MO Center=  1.8D-02,  6.4D-03, -3.8D-01, r^2= 2.7D+00
   Bfn.  Coefficient  Atom+Function         Bfn.  Coefficient  Atom+Function  
  ----- ------------  ---------------      ----- ------------  ---------------
    68      0.232698  2 O  px                65      0.230847  2 O  px         
   124     -0.204705  3 O  py               121     -0.203610  3 O  py         
   234      0.201088  5 O  py               231      0.199163  5 O  py         
    71      0.195353  2 O  px               127     -0.175958  3 O  py         
   237      0.163220  5 O  py               123     -0.114640  3 O  px         

 Vector   26  Occ=0.000000D+00  E= 9.203936D-02
              MO Center=  1.3D+00,  5.0D-01,  2.9D+00, r^2= 9.4D+00
   Bfn.  Coefficient  Atom+Function         Bfn.  Coefficient  Atom+Function  
  ----- ------------  ---------------      ----- ------------  ---------------
     6      4.032369  1 S  s                283     -2.027205  6 H  s          
   119     -0.787246  3 O  s                 64     -0.764519  2 O  s          
   174     -0.760715  4 O  s                282     -0.733874  6 H  s          
    21      0.627017  1 S  pz               186      0.606025  4 O  pz         
   229     -0.442034  5 O  s                  5     -0.436796  1 S  s          

 Vector   27  Occ=0.000000D+00  E= 1.565352D-01
              MO Center= -1.6D+00, -6.1D-01, -3.6D-01, r^2= 1.4D+01
   Bfn.  Coefficient  Atom+Function         Bfn.  Coefficient  Atom+Function  
  ----- ------------  ---------------      ----- ------------  ---------------
   229      4.801645  5 O  s                  6     -4.141836  1 S  s          
    19      2.370380  1 S  px                 5     -1.751007  1 S  s          
    16      1.740985  1 S  px                64      1.622897  2 O  s          
    18      1.081393  1 S  pz                21      1.072001  1 S  pz         
   174      1.049519  4 O  s                 20      0.922091  1 S  py         

 Vector   28  Occ=0.000000D+00  E= 1.573369D-01
              MO Center=  9.6D-01,  5.5D-01, -5.2D-01, r^2= 1.6D+01
   Bfn.  Coefficient  Atom+Function         Bfn.  Coefficient  Atom+Function  
  ----- ------------  ---------------      ----- ------------  ---------------
     6      4.171226  1 S  s                 64     -3.733866  2 O  s          
   119     -3.686396  3 O  s                 18     -2.626553  1 S  pz         
    21     -1.746997  1 S  pz               174      1.734204  4 O  s          
    19      1.622957  1 S  px                16      1.441659  1 S  px         
     5      1.262101  1 S  s                 20      0.962635  1 S  py         

 Vector   29  Occ=0.000000D+00  E= 1.583998D-01
              MO Center=  3.6D-01,  1.0D-02,  2.1D-01, r^2= 1.8D+01
   Bfn.  Coefficient  Atom+Function         Bfn.  Coefficient  Atom+Function  
  ----- ------------  ---------------      ----- ------------  ---------------
   119      3.148976  3 O  s                 64     -2.994465  2 O  s          
    20      2.836887  1 S  py                17      2.251409  1 S  py         
    19     -1.276432  1 S  px                16     -1.047831  1 S  px         
    58     -0.617910  1 S  fyzz             240     -0.585639  5 O  py         
    56     -0.573679  1 S  fyyy             229      0.573981  5 O  s          

 Vector   30  Occ=0.000000D+00  E= 1.697884D-01
              MO Center=  1.4D+00,  5.5D-01,  2.7D+00, r^2= 1.2D+01
   Bfn.  Coefficient  Atom+Function         Bfn.  Coefficient  Atom+Function  
  ----- ------------  ---------------      ----- ------------  ---------------
     6     12.069961  1 S  s                283     -3.421053  6 H  s          
   282     -2.981130  6 H  s                119     -2.760168  3 O  s          
    64     -2.682573  2 O  s                186      2.030587  4 O  pz         
   229     -2.036409  5 O  s                 21      1.902176  1 S  pz         
   174     -1.817916  4 O  s                 18      1.392606  1 S  pz         

 Vector   31  Occ=0.000000D+00  E= 1.916803D-01
              MO Center=  8.9D-04, -3.5D-03, -8.7D-03, r^2= 1.7D+01
   Bfn.  Coefficient  Atom+Function         Bfn.  Coefficient  Atom+Function  
  ----- ------------  ---------------      ----- ------------  ---------------
     6     12.460518  1 S  s                174     -9.868704  4 O  s          
   282      5.131147  6 H  s                119     -4.439125  3 O  s          
    64     -4.279168  2 O  s                 21      3.762393  1 S  pz         
   229     -2.522706  5 O  s                  5      1.862011  1 S  s          
   184     -1.714877  4 O  px                19      1.609499  1 S  px         

 Vector   32  Occ=0.000000D+00  E= 2.101753D-01
              MO Center= -4.4D-01, -3.3D-01,  1.3D+00, r^2= 1.4D+01
   Bfn.  Coefficient  Atom+Function         Bfn.  Coefficient  Atom+Function  
  ----- ------------  ---------------      ----- ------------  ---------------
   174     -3.891787  4 O  s                229      3.757465  5 O  s          
   186      3.708911  4 O  pz                18      3.678298  1 S  pz         
     5      3.007118  1 S  s                 16      2.624334  1 S  px         
   239      1.377930  5 O  px                17      1.278934  1 S  py         
    21     -1.073500  1 S  pz                35     -1.037560  1 S  dxy        

 Vector   33  Occ=0.000000D+00  E= 2.241566D-01
              MO Center=  4.0D-01,  3.7D-01,  5.5D-01, r^2= 1.4D+01
   Bfn.  Coefficient  Atom+Function         Bfn.  Coefficient  Atom+Function  
  ----- ------------  ---------------      ----- ------------  ---------------
    17      4.592916  1 S  py                64     -2.844562  2 O  s          
   119      2.232035  3 O  s                 16     -1.852935  1 S  px         
    75      1.491960  2 O  py                38      1.408160  1 S  dyz        
    51     -1.237889  1 S  fxxy              56     -1.241575  1 S  fyyy       
   185     -1.082205  4 O  py                58     -1.039622  1 S  fyzz       

 Vector   34  Occ=0.000000D+00  E= 2.310769D-01
              MO Center=  2.4D-01,  9.5D-02, -7.9D-02, r^2= 1.5D+01
   Bfn.  Coefficient  Atom+Function         Bfn.  Coefficient  Atom+Function  
  ----- ------------  ---------------      ----- ------------  ---------------
   174      4.228991  4 O  s                282     -3.941934  6 H  s          
    16      2.837008  1 S  px               184      2.409095  4 O  px         
   229      2.197464  5 O  s                119     -1.837315  3 O  s          
   239      1.656450  5 O  px                18     -1.452603  1 S  pz         
    19     -1.429418  1 S  px                36     -1.432209  1 S  dxz        

 Vector   35  Occ=0.000000D+00  E= 2.343836D-01
              MO Center= -6.9D-02, -9.0D-02, -4.0D-01, r^2= 1.4D+01
   Bfn.  Coefficient  Atom+Function         Bfn.  Coefficient  Atom+Function  
  ----- ------------  ---------------      ----- ------------  ---------------
    17      2.221060  1 S  py                38     -1.671090  1 S  dyz        
   129     -1.610909  3 O  px                75      1.588310  2 O  py         
    16     -1.400467  1 S  px                64     -1.276815  2 O  s          
   119      1.175760  3 O  s                 20     -0.994385  1 S  py         
    36      0.890877  1 S  dxz               35     -0.741164  1 S  dxy        

 Vector   36  Occ=0.000000D+00  E= 2.599434D-01
              MO Center= -4.6D-01, -3.0D-01, -4.0D-01, r^2= 1.2D+01
   Bfn.  Coefficient  Atom+Function         Bfn.  Coefficient  Atom+Function  
  ----- ------------  ---------------      ----- ------------  ---------------
     5      8.044059  1 S  s                229     -3.741195  5 O  s          
    34      3.601763  1 S  dxx               37      3.382270  1 S  dyy        
   119     -3.178448  3 O  s                 64     -3.100595  2 O  s          
    39      2.891719  1 S  dzz              239     -2.071544  5 O  px         
    75      1.584553  2 O  py               129      1.366977  3 O  px         

 Vector   37  Occ=0.000000D+00  E= 2.784011D-01
              MO Center=  3.2D-01,  1.8D-01,  3.0D-01, r^2= 8.1D+00
   Bfn.  Coefficient  Atom+Function         Bfn.  Coefficient  Atom+Function  
  ----- ------------  ---------------      ----- ------------  ---------------
    64     -4.136058  2 O  s                  5      4.085443  1 S  s          
   119     -3.996470  3 O  s                282     -3.266823  6 H  s          
     6      2.909414  1 S  s                 39      2.550619  1 S  dzz        
    37      2.298931  1 S  dyy              186      2.191202  4 O  pz         
    16      1.790148  1 S  px                75      1.771241  2 O  py         

 Vector   38  Occ=0.000000D+00  E= 2.799184D-01
              MO Center= -3.6D-01, -2.8D-01,  1.2D-01, r^2= 1.1D+01
   Bfn.  Coefficient  Atom+Function         Bfn.  Coefficient  Atom+Function  
  ----- ------------  ---------------      ----- ------------  ---------------
   174      4.799913  4 O  s                 16      3.005776  1 S  px         
   186     -2.886855  4 O  pz                18     -2.619212  1 S  pz         
   119     -1.880646  3 O  s                 64     -1.773543  2 O  s          
    36      1.758106  1 S  dxz                6     -1.677542  1 S  s          
    17      1.531147  1 S  py               131     -1.415319  3 O  pz         

 Vector   39  Occ=0.000000D+00  E= 2.868114D-01
              MO Center= -1.4D-01, -1.3D-01, -2.4D-01, r^2= 8.1D+00
   Bfn.  Coefficient  Atom+Function         Bfn.  Coefficient  Atom+Function  
  ----- ------------  ---------------      ----- ------------  ---------------
     6      9.879485  1 S  s                174     -6.147179  4 O  s          
   229     -4.459877  5 O  s                282      4.095773  6 H  s          
    64     -4.025580  2 O  s                119     -3.677646  3 O  s          
    16     -1.720179  1 S  px               241     -1.692024  5 O  pz         
     5      1.674368  1 S  s                 36     -1.650401  1 S  dxz        

 Vector   40  Occ=0.000000D+00  E= 2.999629D-01
              MO Center=  1.3D-01,  6.3D-02,  5.9D-01, r^2= 1.3D+01
   Bfn.  Coefficient  Atom+Function         Bfn.  Coefficient  Atom+Function  
  ----- ------------  ---------------      ----- ------------  ---------------
   282     -2.362242  6 H  s                184      2.195829  4 O  px         
   185     -2.154659  4 O  py               131     -1.692018  3 O  pz         
   174      1.548123  4 O  s                 76      1.531152  2 O  pz         
    20      1.501563  1 S  py                 6      1.131472  1 S  s          
    19     -1.068605  1 S  px               119     -1.009661  3 O  s          

 Vector   41  Occ=0.000000D+00  E= 3.019876D-01
              MO Center=  8.5D-02,  1.4D-02,  3.0D-01, r^2= 6.9D+00
   Bfn.  Coefficient  Atom+Function         Bfn.  Coefficient  Atom+Function  
  ----- ------------  ---------------      ----- ------------  ---------------
     6      5.426142  1 S  s                  5     -2.999519  1 S  s          
    16      2.448171  1 S  px               229      2.358811  5 O  s          
    21      2.164621  1 S  pz               119     -1.988900  3 O  s          
   282     -1.666734  6 H  s                186     -1.608201  4 O  pz         
    34     -1.479691  1 S  dxx               39     -1.429229  1 S  dzz        

 Vector   42  Occ=0.000000D+00  E= 3.092234D-01
              MO Center= -9.6D-02,  4.2D-01,  6.3D-01, r^2= 1.2D+01
   Bfn.  Coefficient  Atom+Function         Bfn.  Coefficient  Atom+Function  
  ----- ------------  ---------------      ----- ------------  ---------------
     6      8.417048  1 S  s                282     -8.420374  6 H  s          
   229     -3.338530  5 O  s                184      3.277757  4 O  px         
   174      3.182643  4 O  s                  5     -2.481395  1 S  s          
    16     -2.323753  1 S  px               185      1.979313  4 O  py         
    21      1.832395  1 S  pz                76     -1.809214  2 O  pz         

 Vector   43  Occ=0.000000D+00  E= 3.126256D-01
              MO Center=  6.6D-02, -2.4D-02, -3.1D-01, r^2= 1.4D+01
   Bfn.  Coefficient  Atom+Function         Bfn.  Coefficient  Atom+Function  
  ----- ------------  ---------------      ----- ------------  ---------------
     6      2.808182  1 S  s                282     -2.603687  6 H  s          
    74     -1.936756  2 O  px               130      1.827384  3 O  py         
   240     -1.685203  5 O  py               184      1.063953  4 O  px         
   229     -1.054830  5 O  s                 16     -0.789517  1 S  px         
   174      0.778332  4 O  s                 64     -0.730459  2 O  s          

 Vector   44  Occ=0.000000D+00  E= 3.194781D-01
              MO Center=  5.1D-02, -1.9D-01,  4.7D-01, r^2= 6.9D+00
   Bfn.  Coefficient  Atom+Function         Bfn.  Coefficient  Atom+Function  
  ----- ------------  ---------------      ----- ------------  ---------------
     6      4.448684  1 S  s                282     -3.771510  6 H  s          
   229     -2.813670  5 O  s                 17     -2.709236  1 S  py         
   119     -1.828811  3 O  s                 64      1.777816  2 O  s          
   184      1.453972  4 O  px                16     -1.218470  1 S  px         
    18      1.196345  1 S  pz                21      1.119558  1 S  pz         

 Vector   45  Occ=0.000000D+00  E= 3.280680D-01
              MO Center= -7.6D-02,  1.5D-01, -1.4D-02, r^2= 1.6D+01
   Bfn.  Coefficient  Atom+Function         Bfn.  Coefficient  Atom+Function  
  ----- ------------  ---------------      ----- ------------  ---------------
    19      5.689751  1 S  px               239     -3.116752  5 O  px         
    74     -2.811707  2 O  px               129     -2.715538  3 O  px         
   184     -2.126066  4 O  px                21     -1.819809  1 S  pz         
    20      1.781613  1 S  py                35      1.507975  1 S  dxy        
    18     -1.435956  1 S  pz               174      1.404049  4 O  s          

 Vector   46  Occ=0.000000D+00  E= 3.281375D-01
              MO Center= -1.9D-01, -2.5D-01, -1.3D-01, r^2= 1.6D+01
   Bfn.  Coefficient  Atom+Function         Bfn.  Coefficient  Atom+Function  
  ----- ------------  ---------------      ----- ------------  ---------------
    20      5.938730  1 S  py                75     -3.232628  2 O  py         
   240     -3.155266  5 O  py               130     -3.067858  3 O  py         
    19     -1.964766  1 S  px               185     -1.949928  4 O  py         
    63      1.538166  2 O  s                129      1.205615  3 O  px         
   118     -1.195026  3 O  s                 34      1.119785  1 S  dxx        

 Vector   47  Occ=0.000000D+00  E= 3.397015D-01
              MO Center=  2.5D-01,  7.1D-02, -1.0D-01, r^2= 1.2D+01
   Bfn.  Coefficient  Atom+Function         Bfn.  Coefficient  Atom+Function  
  ----- ------------  ---------------      ----- ------------  ---------------
    64      6.508223  2 O  s                119     -5.473752  3 O  s          
   174      5.398332  4 O  s                 17     -4.761630  1 S  py         
    18     -3.726120  1 S  pz                21     -3.394591  1 S  pz         
     6     -3.208038  1 S  s                 16      3.206815  1 S  px         
   282     -2.980148  6 H  s                129      2.631934  3 O  px         

 Vector   48  Occ=0.000000D+00  E= 3.421209D-01
              MO Center=  4.0D-03, -1.1D-01, -3.3D-01, r^2= 1.3D+01
   Bfn.  Coefficient  Atom+Function         Bfn.  Coefficient  Atom+Function  
  ----- ------------  ---------------      ----- ------------  ---------------
   174      6.694251  4 O  s                119      5.281635  3 O  s          
    18     -4.396155  1 S  pz                21     -4.220395  1 S  pz         
   282     -3.976706  6 H  s                  5     -3.197354  1 S  s          
    17      3.168928  1 S  py                64     -3.101706  2 O  s          
     6     -3.034917  1 S  s                 16     -2.837588  1 S  px         

 Vector   49  Occ=0.000000D+00  E= 3.836300D-01
              MO Center= -3.4D-01, -2.5D-01,  1.0D+00, r^2= 1.1D+01
   Bfn.  Coefficient  Atom+Function         Bfn.  Coefficient  Atom+Function  
  ----- ------------  ---------------      ----- ------------  ---------------
   174     16.433810  4 O  s                 18     -6.622344  1 S  pz         
     6     -5.642932  1 S  s                186     -5.000548  4 O  pz         
   229     -4.704005  5 O  s                282     -3.252992  6 H  s          
   241     -1.996595  5 O  pz               131     -1.924309  3 O  pz         
    76     -1.802299  2 O  pz                21      1.688714  1 S  pz         

 Vector   50  Occ=0.000000D+00  E= 3.919924D-01
              MO Center= -2.2D-02, -3.0D-02,  6.7D-01, r^2= 1.3D+01
   Bfn.  Coefficient  Atom+Function         Bfn.  Coefficient  Atom+Function  
  ----- ------------  ---------------      ----- ------------  ---------------
   174     13.181994  4 O  s                229      9.740297  5 O  s          
   282     -9.587233  6 H  s                 16      8.031615  1 S  px         
    64     -4.886610  2 O  s                119     -4.867352  3 O  s          
    17      4.445716  1 S  py                35     -3.554048  1 S  dxy        
   239      3.553640  5 O  px               173      3.385840  4 O  s          

 Vector   51  Occ=0.000000D+00  E= 4.033771D-01
              MO Center=  4.1D-02, -4.2D-02,  6.9D-01, r^2= 1.1D+01
   Bfn.  Coefficient  Atom+Function         Bfn.  Coefficient  Atom+Function  
  ----- ------------  ---------------      ----- ------------  ---------------
     6     23.343259  1 S  s                174    -14.329363  4 O  s          
   229    -12.513156  5 O  s                119     -7.953260  3 O  s          
   282      7.917858  6 H  s                 64     -6.228528  2 O  s          
     5     -3.680266  1 S  s                184     -3.047708  4 O  px         
   228      2.740558  5 O  s                 63      2.704755  2 O  s          

 Vector   52  Occ=0.000000D+00  E= 4.134900D-01
              MO Center=  7.0D-01,  5.5D-01,  1.1D+00, r^2= 9.2D+00
   Bfn.  Coefficient  Atom+Function         Bfn.  Coefficient  Atom+Function  
  ----- ------------  ---------------      ----- ------------  ---------------
     6     10.050049  1 S  s                 64     -7.590976  2 O  s          
   282     -6.071816  6 H  s                229     -4.185462  5 O  s          
   173      4.012716  4 O  s                  5     -3.781062  1 S  s          
   174      2.930234  4 O  s                186      2.253715  4 O  pz         
   290      2.181936  6 H  px                17      2.123471  1 S  py         

 Vector   53  Occ=0.000000D+00  E= 4.205929D-01
              MO Center=  6.4D-01,  3.2D-01,  2.8D-01, r^2= 1.1D+01
   Bfn.  Coefficient  Atom+Function         Bfn.  Coefficient  Atom+Function  
  ----- ------------  ---------------      ----- ------------  ---------------
    64      9.203821  2 O  s                119     -8.353372  3 O  s          
    17     -5.974189  1 S  py                75     -3.251072  2 O  py         
    16      2.957773  1 S  px               282     -2.817689  6 H  s          
   130     -2.475982  3 O  py               129      2.023007  3 O  px         
   290      2.026118  6 H  px               173      1.704921  4 O  s          

 Vector   54  Occ=0.000000D+00  E= 4.391865D-01
              MO Center=  2.2D-01, -6.4D-02,  5.4D-01, r^2= 1.2D+01
   Bfn.  Coefficient  Atom+Function         Bfn.  Coefficient  Atom+Function  
  ----- ------------  ---------------      ----- ------------  ---------------
     6     11.999213  1 S  s                119     -9.766723  3 O  s          
    64     -8.224174  2 O  s                174     -6.885007  4 O  s          
   229      4.298363  5 O  s                 16      3.433275  1 S  px         
   173     -3.116689  4 O  s                186      2.910154  4 O  pz         
   184      2.846578  4 O  px               292     -2.748825  6 H  pz         

 Vector   55  Occ=0.000000D+00  E= 4.521007D-01
              MO Center=  1.4D-01,  6.8D-02, -5.9D-01, r^2= 8.2D+00
   Bfn.  Coefficient  Atom+Function         Bfn.  Coefficient  Atom+Function  
  ----- ------------  ---------------      ----- ------------  ---------------
     6      7.753829  1 S  s                119     -6.828178  3 O  s          
    64     -5.970764  2 O  s                 39     -4.184735  1 S  dzz        
     5      2.902788  1 S  s                 18     -2.831815  1 S  pz         
   173      2.749136  4 O  s                183     -2.502168  4 O  pz         
    37      2.461035  1 S  dyy               34      2.253167  1 S  dxx        

 Vector   56  Occ=0.000000D+00  E= 4.901382D-01
              MO Center= -4.2D-01, -6.1D-02,  3.2D-01, r^2= 8.2D+00
   Bfn.  Coefficient  Atom+Function         Bfn.  Coefficient  Atom+Function  
  ----- ------------  ---------------      ----- ------------  ---------------
    38      5.343294  1 S  dyz               34      3.251751  1 S  dxx        
   229     -2.963342  5 O  s                119     -2.909005  3 O  s          
    63      2.757698  2 O  s                 36     -2.613091  1 S  dxz        
   118     -2.337641  3 O  s                 17      2.126934  1 S  py         
    51     -2.121912  1 S  fxxy               6      1.919179  1 S  s          

 Vector   57  Occ=0.000000D+00  E= 4.951195D-01
              MO Center=  2.6D-02, -2.6D-01,  1.1D-01, r^2= 1.1D+01
   Bfn.  Coefficient  Atom+Function         Bfn.  Coefficient  Atom+Function  
  ----- ------------  ---------------      ----- ------------  ---------------
    64    -11.290856  2 O  s                229    -11.119305  5 O  s          
   119    -11.034716  3 O  s                  5     10.386430  1 S  s          
    37      9.241356  1 S  dyy               39      8.956675  1 S  dzz        
     6      8.866774  1 S  s                174     -8.832089  4 O  s          
    34      8.267729  1 S  dxx               75      2.917270  2 O  py         

 Vector   58  Occ=0.000000D+00  E= 5.118571D-01
              MO Center=  4.8D-01,  3.4D-01,  6.4D-01, r^2= 8.6D+00
   Bfn.  Coefficient  Atom+Function         Bfn.  Coefficient  Atom+Function  
  ----- ------------  ---------------      ----- ------------  ---------------
   174      9.188672  4 O  s                 35      7.551493  1 S  dxy        
   229     -7.367963  5 O  s                282     -6.116133  6 H  s          
    18     -4.673033  1 S  pz                34      3.988034  1 S  dxx        
   228     -3.617504  5 O  s                186     -3.405953  4 O  pz         
    36      3.331212  1 S  dxz              292      2.375525  6 H  pz         

 Vector   59  Occ=0.000000D+00  E= 5.262915D-01
              MO Center= -6.3D-02, -2.4D-01,  2.4D-01, r^2= 8.4D+00
   Bfn.  Coefficient  Atom+Function         Bfn.  Coefficient  Atom+Function  
  ----- ------------  ---------------      ----- ------------  ---------------
   282      5.921423  6 H  s                 38      4.265919  1 S  dyz        
     6     -3.171475  1 S  s                 37      3.137110  1 S  dyy        
   229     -2.658435  5 O  s                 34     -2.574852  1 S  dxx        
    36      2.561133  1 S  dxz                5      2.483464  1 S  s          
    63     -2.484089  2 O  s                184     -2.492114  4 O  px         

 Vector   60  Occ=0.000000D+00  E= 5.308989D-01
              MO Center= -2.5D-01,  9.3D-02,  4.5D-02, r^2= 8.4D+00
   Bfn.  Coefficient  Atom+Function         Bfn.  Coefficient  Atom+Function  
  ----- ------------  ---------------      ----- ------------  ---------------
    36      5.599926  1 S  dxz              282      4.623229  6 H  s          
     6     -4.337826  1 S  s                 16     -3.627662  1 S  px         
   229     -3.577639  5 O  s                 35     -3.388145  1 S  dxy        
   119      3.165589  3 O  s                186     -2.468336  4 O  pz         
    18     -2.389319  1 S  pz                34      2.183626  1 S  dxx        

 Vector   61  Occ=0.000000D+00  E= 5.708621D-01
              MO Center=  3.0D-02,  7.8D-02,  2.8D-01, r^2= 9.6D+00
   Bfn.  Coefficient  Atom+Function         Bfn.  Coefficient  Atom+Function  
  ----- ------------  ---------------      ----- ------------  ---------------
   282     15.601299  6 H  s                 16     10.303282  1 S  px         
   229      8.742486  5 O  s                 17      8.685845  1 S  py         
   174     -6.544727  4 O  s                  6     -5.148985  1 S  s          
     5      4.451607  1 S  s                 36     -4.029138  1 S  dxz        
   281     -3.977368  6 H  s                 18     -3.483936  1 S  pz         

 Vector   62  Occ=0.000000D+00  E= 5.785743D-01
              MO Center=  3.9D-01,  2.8D-01,  1.5D-01, r^2= 8.6D+00
   Bfn.  Coefficient  Atom+Function         Bfn.  Coefficient  Atom+Function  
  ----- ------------  ---------------      ----- ------------  ---------------
    17     16.656548  1 S  py                64     -9.099300  2 O  s          
    18      8.775165  1 S  pz               119      8.677775  3 O  s          
    16     -6.014698  1 S  px               282     -5.348223  6 H  s          
    58     -4.034807  1 S  fyzz              35      3.949003  1 S  dxy        
    36      3.892191  1 S  dxz               51     -3.817126  1 S  fxxy       

 Vector   63  Occ=0.000000D+00  E= 5.891362D-01
              MO Center=  3.0D-01, -4.5D-02,  4.6D-01, r^2= 8.7D+00
   Bfn.  Coefficient  Atom+Function         Bfn.  Coefficient  Atom+Function  
  ----- ------------  ---------------      ----- ------------  ---------------
    18     16.411723  1 S  pz                16     11.554697  1 S  px         
   282     -6.024385  6 H  s                  6      5.448140  1 S  s          
   174     -5.450970  4 O  s                 17     -5.267666  1 S  py         
   119     -4.755257  3 O  s                 39      4.606547  1 S  dzz        
   292      4.152137  6 H  pz                64      4.076040  2 O  s          

 Vector   64  Occ=0.000000D+00  E= 6.068656D-01
              MO Center=  2.9D-02, -4.1D-03,  1.7D-01, r^2= 4.9D+00
   Bfn.  Coefficient  Atom+Function         Bfn.  Coefficient  Atom+Function  
  ----- ------------  ---------------      ----- ------------  ---------------
    38      3.124825  1 S  dyz              282     -1.617857  6 H  s          
    36     -1.337099  1 S  dxz              174      1.327663  4 O  s          
   203      1.162332  4 O  dyz               34     -0.973014  1 S  dxx        
    26      0.879532  1 S  dyz               37      0.861871  1 S  dyy        
   182     -0.756957  4 O  py                73     -0.736930  2 O  pz         

 Vector   65  Occ=0.000000D+00  E= 6.258199D-01
              MO Center= -7.8D-02, -9.5D-02, -8.0D-02, r^2= 6.2D+00
   Bfn.  Coefficient  Atom+Function         Bfn.  Coefficient  Atom+Function  
  ----- ------------  ---------------      ----- ------------  ---------------
   174     14.536189  4 O  s                282    -10.022662  6 H  s          
    16      8.207916  1 S  px                 6     -6.631301  1 S  s          
    18     -5.550407  1 S  pz                36      4.559273  1 S  dxz        
   229      4.291800  5 O  s                 35     -4.113962  1 S  dxy        
    17      3.109860  1 S  py                38      2.599395  1 S  dyz        

 Vector   66  Occ=0.000000D+00  E= 6.607758D-01
              MO Center= -1.8D-01, -1.6D-01,  1.2D+00, r^2= 7.0D+00
   Bfn.  Coefficient  Atom+Function         Bfn.  Coefficient  Atom+Function  
  ----- ------------  ---------------      ----- ------------  ---------------
   282     24.034997  6 H  s                174    -21.834556  4 O  s          
    16    -11.011109  1 S  px                 5      9.722739  1 S  s          
    18      7.273962  1 S  pz                17     -5.857554  1 S  py         
   229     -5.533571  5 O  s                 35      5.468737  1 S  dxy        
     6      5.351776  1 S  s                228     -5.073696  5 O  s          

 Vector   67  Occ=0.000000D+00  E= 7.289196D-01
              MO Center=  3.6D-01,  2.0D-01,  1.0D+00, r^2= 6.1D+00
   Bfn.  Coefficient  Atom+Function         Bfn.  Coefficient  Atom+Function  
  ----- ------------  ---------------      ----- ------------  ---------------
   118      3.328964  3 O  s                 35      3.142782  1 S  dxy        
    63     -2.694166  2 O  s                174     -2.281051  4 O  s          
    53     -2.242400  1 S  fxyy              37      1.954330  1 S  dyy        
   200     -1.849635  4 O  dxy              126     -1.694049  3 O  px         
    72      1.637661  2 O  py                34     -1.584228  1 S  dxx        

 Vector   68  Occ=0.000000D+00  E= 7.495807D-01
              MO Center=  1.7D-02, -1.3D-02,  5.0D-01, r^2= 6.7D+00
   Bfn.  Coefficient  Atom+Function         Bfn.  Coefficient  Atom+Function  
  ----- ------------  ---------------      ----- ------------  ---------------
     5      9.053538  1 S  s                 63     -4.685880  2 O  s          
    39     -4.392452  1 S  dzz              118     -4.010807  3 O  s          
   173      3.836567  4 O  s                229      3.626400  5 O  s          
    52     -3.470863  1 S  fxxz              72      3.462648  2 O  py         
    57     -3.066284  1 S  fyyz              59     -2.886936  1 S  fzzz       

 Vector   69  Occ=0.000000D+00  E= 7.614650D-01
              MO Center=  1.4D-01,  2.0D-01,  8.4D-01, r^2= 6.7D+00
   Bfn.  Coefficient  Atom+Function         Bfn.  Coefficient  Atom+Function  
  ----- ------------  ---------------      ----- ------------  ---------------
     5     21.278929  1 S  s                118     -7.234345  3 O  s          
    18     -7.080861  1 S  pz               174      7.100801  4 O  s          
    63     -6.526537  2 O  s                 39     -5.701105  1 S  dzz        
    34     -4.843387  1 S  dxx                6     -4.787503  1 S  s          
    72      4.791048  2 O  py               282      4.507456  6 H  s          

 Vector   70  Occ=0.000000D+00  E= 7.681447D-01
              MO Center=  2.4D-01,  2.0D-02,  7.2D-01, r^2= 6.8D+00
   Bfn.  Coefficient  Atom+Function         Bfn.  Coefficient  Atom+Function  
  ----- ------------  ---------------      ----- ------------  ---------------
     5     19.429756  1 S  s                 63     -7.393582  2 O  s          
    72      5.106402  2 O  py               174      5.115540  4 O  s          
    18     -4.990230  1 S  pz                34     -4.970046  1 S  dxx        
    39     -4.816516  1 S  dzz              228     -4.435202  5 O  s          
     6     -3.907988  1 S  s                 64      3.879911  2 O  s          

 Vector   71  Occ=0.000000D+00  E= 7.792627D-01
              MO Center= -8.6D-02, -2.5D-02,  7.9D-01, r^2= 6.7D+00
   Bfn.  Coefficient  Atom+Function         Bfn.  Coefficient  Atom+Function  
  ----- ------------  ---------------      ----- ------------  ---------------
     5      3.685114  1 S  s                 18     -1.973752  1 S  pz         
    53      1.728564  1 S  fxyy             182     -1.534530  4 O  py         
   282      1.540785  6 H  s                174      1.361825  4 O  s          
   173     -1.285870  4 O  s                118     -1.268788  3 O  s          
   203     -1.246365  4 O  dyz               63     -1.211217  2 O  s          

 Vector   72  Occ=0.000000D+00  E= 7.916453D-01
              MO Center= -9.5D-02, -8.8D-02,  4.2D-01, r^2= 7.3D+00
   Bfn.  Coefficient  Atom+Function         Bfn.  Coefficient  Atom+Function  
  ----- ------------  ---------------      ----- ------------  ---------------
     5     21.715235  1 S  s                174     13.071803  4 O  s          
   282    -11.439735  6 H  s                228     -7.799324  5 O  s          
   118     -7.753520  3 O  s                  6     -6.505181  1 S  s          
   229      6.197130  5 O  s                 63     -5.770118  2 O  s          
   236     -4.758991  5 O  px                16      4.604442  1 S  px         

 Vector   73  Occ=0.000000D+00  E= 7.983616D-01
              MO Center=  4.5D-01, -1.5D-01, -4.0D-01, r^2= 7.7D+00
   Bfn.  Coefficient  Atom+Function         Bfn.  Coefficient  Atom+Function  
  ----- ------------  ---------------      ----- ------------  ---------------
     5      5.832374  1 S  s                228     -2.558582  5 O  s          
   174      2.312923  4 O  s                 53     -2.115585  1 S  fxyy       
   118     -1.583127  3 O  s                130     -1.483725  3 O  py         
   229      1.441384  5 O  s                237     -1.437652  5 O  py         
   282     -1.437353  6 H  s                145      1.417245  3 O  dxy        

 Vector   74  Occ=0.000000D+00  E= 7.989032D-01
              MO Center= -6.9D-01, -1.3D-01, -1.2D-01, r^2= 7.4D+00
   Bfn.  Coefficient  Atom+Function         Bfn.  Coefficient  Atom+Function  
  ----- ------------  ---------------      ----- ------------  ---------------
     5     11.944813  1 S  s                228     -5.569866  5 O  s          
   173     -3.742877  4 O  s                 37     -3.283254  1 S  dyy        
   119      3.139463  3 O  s                 35      3.056058  1 S  dxy        
   236     -2.986239  5 O  px                64      2.672989  2 O  s          
    39     -2.606385  1 S  dzz              254     -2.482358  5 O  dxx        

 Vector   75  Occ=0.000000D+00  E= 8.026119D-01
              MO Center= -1.3D-01, -1.3D-01, -1.9D-01, r^2= 7.5D+00
   Bfn.  Coefficient  Atom+Function         Bfn.  Coefficient  Atom+Function  
  ----- ------------  ---------------      ----- ------------  ---------------
     5      2.760598  1 S  s                 20      2.565091  1 S  py         
   282      2.460608  6 H  s                 37     -2.390012  1 S  dyy        
   118     -2.373629  3 O  s                145      1.923417  3 O  dxy        
    17      1.842830  1 S  py               240     -1.818518  5 O  py         
    75     -1.740074  2 O  py                63      1.693611  2 O  s          

 Vector   76  Occ=0.000000D+00  E= 8.129298D-01
              MO Center=  2.5D-01,  1.7D-01,  1.5D-01, r^2= 6.9D+00
   Bfn.  Coefficient  Atom+Function         Bfn.  Coefficient  Atom+Function  
  ----- ------------  ---------------      ----- ------------  ---------------
     5      7.844506  1 S  s                228     -4.507323  5 O  s          
   119      4.364039  3 O  s                 64      4.257365  2 O  s          
   229      3.899751  5 O  s                  6     -3.391535  1 S  s          
   173     -3.237825  4 O  s                236     -2.950502  5 O  px         
    39     -2.835564  1 S  dzz               54      2.493812  1 S  fxyz       

 Vector   77  Occ=0.000000D+00  E= 8.231904D-01
              MO Center=  2.7D-01, -3.9D-02, -5.6D-01, r^2= 5.1D+00
   Bfn.  Coefficient  Atom+Function         Bfn.  Coefficient  Atom+Function  
  ----- ------------  ---------------      ----- ------------  ---------------
   119      3.356849  3 O  s                  5      3.031522  1 S  s          
    16     -2.094469  1 S  px               174      2.023845  4 O  s          
    63     -1.844212  2 O  s                 73     -1.741891  2 O  pz         
     6     -1.667328  1 S  s                128      1.484872  3 O  pz         
   228     -1.338113  5 O  s                 35      1.115912  1 S  dxy        

 Vector   78  Occ=0.000000D+00  E= 8.282745D-01
              MO Center= -5.6D-01, -7.0D-02, -6.7D-01, r^2= 7.7D+00
   Bfn.  Coefficient  Atom+Function         Bfn.  Coefficient  Atom+Function  
  ----- ------------  ---------------      ----- ------------  ---------------
   229      9.530956  5 O  s                 16      7.030439  1 S  px         
    64     -5.048722  2 O  s                 17      4.550890  1 S  py         
   282     -4.206391  6 H  s                119     -3.264461  3 O  s          
    50     -2.614511  1 S  fxxx              53     -2.603267  1 S  fxyy       
   173      2.283401  4 O  s                 55     -2.153876  1 S  fxzz       

 Vector   79  Occ=0.000000D+00  E= 8.480762D-01
              MO Center=  7.3D-01,  3.9D-01, -3.3D-01, r^2= 8.2D+00
   Bfn.  Coefficient  Atom+Function         Bfn.  Coefficient  Atom+Function  
  ----- ------------  ---------------      ----- ------------  ---------------
    64      9.192744  2 O  s                119     -9.213153  3 O  s          
    17     -7.219846  1 S  py                16      4.745810  1 S  px         
    56      2.143722  1 S  fyyy              58      2.144312  1 S  fyzz       
    51      1.842050  1 S  fxxy              53     -1.824860  1 S  fxyy       
    50     -1.705240  1 S  fxxx              92     -1.696750  2 O  dyy        

 Vector   80  Occ=0.000000D+00  E= 8.556595D-01
              MO Center= -4.2D-01, -9.6D-02, -8.9D-01, r^2= 7.2D+00
   Bfn.  Coefficient  Atom+Function         Bfn.  Coefficient  Atom+Function  
  ----- ------------  ---------------      ----- ------------  ---------------
     5      5.360512  1 S  s                229      4.882641  5 O  s          
   173     -4.048715  4 O  s                 51     -3.052687  1 S  fxxy       
   183      2.928807  4 O  pz                52      2.785172  1 S  fxxz       
    21      2.612819  1 S  pz               228     -2.347930  5 O  s          
     6     -2.261582  1 S  s                256     -2.142973  5 O  dxz        

 Vector   81  Occ=0.000000D+00  E= 8.635273D-01
              MO Center=  2.2D-01,  1.8D-01,  3.0D-01, r^2= 7.7D+00
   Bfn.  Coefficient  Atom+Function         Bfn.  Coefficient  Atom+Function  
  ----- ------------  ---------------      ----- ------------  ---------------
     5     15.666800  1 S  s                 64      7.642990  2 O  s          
   183      6.193255  4 O  pz               119      5.726820  3 O  s          
   173     -5.442649  4 O  s                118     -4.610425  3 O  s          
    18      4.284550  1 S  pz                37     -4.214905  1 S  dyy        
   229      4.205081  5 O  s                 63     -3.925452  2 O  s          

 Vector   82  Occ=0.000000D+00  E= 8.852864D-01
              MO Center= -3.5D-01, -3.7D-01,  3.8D-01, r^2= 6.7D+00
   Bfn.  Coefficient  Atom+Function         Bfn.  Coefficient  Atom+Function  
  ----- ------------  ---------------      ----- ------------  ---------------
    63      4.896894  2 O  s                118     -4.746425  3 O  s          
    51     -4.101298  1 S  fxxy              72     -3.969503  2 O  py         
    58     -3.834274  1 S  fyzz              56     -3.699174  1 S  fyyy       
   126      3.255738  3 O  px                38      2.537161  1 S  dyz        
    37     -2.417936  1 S  dyy               35     -2.194603  1 S  dxy        

 Vector   83  Occ=0.000000D+00  E= 8.926791D-01
              MO Center=  3.9D-01,  8.4D-02,  8.8D-01, r^2= 7.2D+00
   Bfn.  Coefficient  Atom+Function         Bfn.  Coefficient  Atom+Function  
  ----- ------------  ---------------      ----- ------------  ---------------
     5     19.428750  1 S  s                  6    -15.696315  1 S  s          
   173    -11.126355  4 O  s                119      7.552904  3 O  s          
   118     -6.753319  3 O  s                 64      6.367459  2 O  s          
    63     -6.328629  2 O  s                228     -5.171470  5 O  s          
   281      3.968307  6 H  s                183      3.714800  4 O  pz         

 Vector   84  Occ=0.000000D+00  E= 9.194629D-01
              MO Center=  2.0D-01,  3.9D-01, -3.0D-02, r^2= 6.9D+00
   Bfn.  Coefficient  Atom+Function         Bfn.  Coefficient  Atom+Function  
  ----- ------------  ---------------      ----- ------------  ---------------
   174     10.586034  4 O  s                282     -8.032432  6 H  s          
   228     -5.975378  5 O  s                  5      5.838758  1 S  s          
    35      5.823839  1 S  dxy                6     -4.497155  1 S  s          
   236     -4.364319  5 O  px               119      4.175833  3 O  s          
    64      4.075142  2 O  s                 37     -3.688144  1 S  dyy        

 Vector   85  Occ=0.000000D+00  E= 9.248533D-01
              MO Center=  3.1D-01, -3.2D-01, -6.7D-02, r^2= 6.8D+00
   Bfn.  Coefficient  Atom+Function         Bfn.  Coefficient  Atom+Function  
  ----- ------------  ---------------      ----- ------------  ---------------
     5      8.940816  1 S  s                174      4.821400  4 O  s          
     6     -4.699395  1 S  s                119      4.451261  3 O  s          
    37     -4.178160  1 S  dyy              229      3.826938  5 O  s          
   228     -3.601642  5 O  s                282     -3.426881  6 H  s          
    36      2.950296  1 S  dxz              237     -2.949492  5 O  py         

 Vector   86  Occ=0.000000D+00  E= 9.298305D-01
              MO Center= -2.9D-01, -1.3D-02,  4.5D-01, r^2= 7.2D+00
   Bfn.  Coefficient  Atom+Function         Bfn.  Coefficient  Atom+Function  
  ----- ------------  ---------------      ----- ------------  ---------------
     5     16.768176  1 S  s                  6    -11.142699  1 S  s          
   229     10.128842  5 O  s                 18      5.607679  1 S  pz         
    63     -5.086395  2 O  s                 64      4.899843  2 O  s          
   118     -4.597419  3 O  s                183      4.611438  4 O  pz         
   173     -4.564469  4 O  s                 52     -4.253201  1 S  fxxz       

 Vector   87  Occ=0.000000D+00  E= 9.425579D-01
              MO Center=  3.2D-01,  1.5D-01,  4.1D-01, r^2= 7.0D+00
   Bfn.  Coefficient  Atom+Function         Bfn.  Coefficient  Atom+Function  
  ----- ------------  ---------------      ----- ------------  ---------------
    36      4.487759  1 S  dxz               34     -3.749600  1 S  dxx        
   119      3.726910  3 O  s                 38      3.219162  1 S  dyz        
    64      3.211660  2 O  s                 37     -2.918193  1 S  dyy        
   173     -2.480992  4 O  s                  5      2.375173  1 S  s          
    51      2.311421  1 S  fxxy              54     -2.281986  1 S  fxyz       

 Vector   88  Occ=0.000000D+00  E= 9.567253D-01
              MO Center=  5.0D-01,  1.0D-01,  1.1D+00, r^2= 7.5D+00
   Bfn.  Coefficient  Atom+Function         Bfn.  Coefficient  Atom+Function  
  ----- ------------  ---------------      ----- ------------  ---------------
     6     10.370259  1 S  s                119     -7.123475  3 O  s          
    64     -6.232819  2 O  s                173     -5.515550  4 O  s          
   174     -4.583235  4 O  s                281      3.421721  6 H  s          
     5      2.976026  1 S  s                229      2.963527  5 O  s          
    36     -2.750559  1 S  dxz               16      2.541100  1 S  px         

 Vector   89  Occ=0.000000D+00  E= 9.715585D-01
[...]
              MO Center=  7.2D-02,  5.6D-02,  7.5D-01, r^2= 3.1D+00
   Bfn.  Coefficient  Atom+Function         Bfn.  Coefficient  Atom+Function  
  ----- ------------  ---------------      ----- ------------  ---------------
     5     22.476942  1 S  s                171     11.234671  4 O  s          
    72      9.808603  2 O  py               126      8.294037  3 O  px         
    63     -7.552980  2 O  s                118     -7.048378  3 O  s          
   236     -5.572577  5 O  px               127     -5.360275  3 O  py         
    18     -5.078640  1 S  pz               170      5.086433  4 O  s          

 Vector  300  Occ=0.000000D+00  E= 1.707896D+01
              MO Center= -8.8D-03, -1.3D-02,  1.3D+00, r^2= 1.4D+00
   Bfn.  Coefficient  Atom+Function         Bfn.  Coefficient  Atom+Function  
  ----- ------------  ---------------      ----- ------------  ---------------
   173     13.750215  4 O  s                  5    -10.694032  1 S  s          
    63      5.255573  2 O  s                180      5.036843  4 O  pz         
   236      4.883481  5 O  px               196     -4.853357  4 O  dyy        
   193     -4.816132  4 O  dxx              118      4.624900  3 O  s          
   199     -4.490214  4 O  dxx              198     -4.428229  4 O  dzz        

 Vector  301  Occ=0.000000D+00  E= 1.730801D+01
              MO Center=  2.0D-01, -1.9D-01, -3.1D-01, r^2= 2.6D+00
   Bfn.  Coefficient  Atom+Function         Bfn.  Coefficient  Atom+Function  
  ----- ------------  ---------------      ----- ------------  ---------------
     5     12.057856  1 S  s                126      9.330115  3 O  px         
    17     -8.293172  1 S  py                72     -8.113730  2 O  py         
   236     -7.381301  5 O  px                69     -6.143119  2 O  py         
   123      5.985268  3 O  px               144     -5.701573  3 O  dxx        
   118      4.835367  3 O  s                233     -4.586818  5 O  px         

 Vector  302  Occ=0.000000D+00  E= 1.735235D+01
              MO Center= -5.9D-01, -4.4D-02, -2.8D-01, r^2= 2.4D+00
   Bfn.  Coefficient  Atom+Function         Bfn.  Coefficient  Atom+Function  
  ----- ------------  ---------------      ----- ------------  ---------------
     5     19.450345  1 S  s                236    -10.039185  5 O  px         
    72      9.157376  2 O  py                16     -8.612439  1 S  px         
   233     -6.761126  5 O  px               254     -6.338042  5 O  dxx        
   237     -6.243140  5 O  py               228      6.179987  5 O  s          
    69      5.621506  2 O  py               257     -5.582344  5 O  dyy        

 Vector  303  Occ=0.000000D+00  E= 1.753852D+01
              MO Center=  4.1D-01,  2.2D-01, -1.9D-01, r^2= 2.7D+00
   Bfn.  Coefficient  Atom+Function         Bfn.  Coefficient  Atom+Function  
  ----- ------------  ---------------      ----- ------------  ---------------
     5     22.398834  1 S  s                 72     13.375037  2 O  py         
   126     10.923046  3 O  px                16      9.870301  1 S  px         
   127     -7.889041  3 O  py                92     -7.572667  2 O  dyy        
    69      7.177921  2 O  py                 6     -6.753913  1 S  s          
   144     -6.655035  3 O  dxx              123      6.258808  3 O  px         

 Vector  304  Occ=0.000000D+00  E= 3.236261D+01
              MO Center=  3.0D-03, -1.7D-03,  9.5D-02, r^2= 3.2D+00
   Bfn.  Coefficient  Atom+Function         Bfn.  Coefficient  Atom+Function  
  ----- ------------  ---------------      ----- ------------  ---------------
     5    164.458878  1 S  s                  3    -62.093813  1 S  s          
     2    -43.221138  1 S  s                118    -39.974998  3 O  s          
    63    -38.906250  2 O  s                228    -36.918100  5 O  s          
   183     36.320094  4 O  pz               173    -31.859472  4 O  s          
    72     26.709789  2 O  py               126     23.609573  3 O  px         


 center of mass
 --------------
 x =  -0.01185415 y =  -0.01566271 z =   0.16247375

 moments of inertia (a.u.)
 ------------------
         373.752387013200          -2.248161108132          -0.352037169925
          -2.248161108132         377.852028278703           2.016988208638
          -0.352037169925           2.016988208638         361.021313344089

     Multipole analysis of the density
     ---------------------------------

     L   x y z        total         alpha         beta         nuclear
     -   - - -        -----         -----         ----         -------
     0   0 0 0     -1.000000    -25.000000    -25.000000     49.000000

     1   1 0 0      0.412718      0.130606      0.130606      0.151505
     1   0 1 0      0.172873      0.333469      0.333469     -0.494064
     1   0 0 1      0.564547     -4.562805     -4.562805      9.690157

     2   2 0 0    -32.782784    -62.581647    -62.581647     92.380509
     2   1 1 0      0.434790     -0.543879     -0.543879      1.522547
     2   1 0 1      2.092467     -0.322309     -0.322309      2.737084
     2   0 2 0    -33.682384    -61.547668    -61.547668     89.412952
     2   0 1 1      0.857801      0.509838      0.509838     -0.161876
     2   0 0 2    -29.356460    -67.466520    -67.466520    105.576579

 Line search: 
     step= 1.00 grad=-4.9D-07 hess= 7.6D-08 energy=   -699.447287 mode=accept  
 new step= 1.00                   predicted energy=   -699.447287

          --------
          Step   7
          --------


                         Geometry "geometry" -> "geometry"
                         ---------------------------------

 Output coordinates in angstroms (scale by  1.889725989 to convert to a.u.)

  No.       Tag          Charge          X              Y              Z
 ---- ---------------- ---------- -------------- -------------- --------------
    1 S                   16.0000    -0.01014757    -0.00554068    -0.05263907
    2 O                    8.0000     0.01368123     1.44997028    -0.35004764
    3 O                    8.0000     1.25741738    -0.70988163    -0.38308672
    4 O                    8.0000    -0.08475444    -0.08580227     1.66469404
    5 O                    8.0000    -1.25293448    -0.71131127    -0.42697042
    6 H                    1.0000     0.77525689     0.28340256     1.93332181

      Atomic Mass 
      ----------- 

      S                 31.972070
      O                 15.994910
      H                  1.007825


 Effective nuclear repulsion energy (a.u.)     270.1740067997

            Nuclear Dipole moment (a.u.) 
            ----------------------------
        X                 Y               Z
 ---------------- ---------------- ----------------
     0.1515053677    -0.4940638601     9.6901572955


                                 NWChem DFT Module
                                 -----------------




 Summary of "ao basis" -> "ao basis" (cartesian)
 ------------------------------------------------------------------------------
       Tag                 Description            Shells   Functions and Types
 ---------------- ------------------------------  ------  ---------------------
 S                        aug-cc-pVTZ               16       59   6s5p3d2f
 O                        aug-cc-pVTZ               14       55   5s4p3d2f
 H                        aug-cc-pVTZ                9       25   4s3p2d



  The DFT is already converged 

         Total DFT energy =   -699.447287444299


            General Information
            -------------------
          SCF calculation type: DFT
          Wavefunction type:  closed shell.
          No. of atoms     :     6
          No. of electrons :    50
           Alpha electrons :    25
            Beta electrons :    25
          Charge           :    -1
          Spin multiplicity:     1
          Use of symmetry is: off; symmetry adaption is: off
          Maximum number of iterations: 200
          AO basis - number of functions:   304
                     number of shells:    81
          Convergence on energy requested:  1.00D-06
          Convergence on density requested:  1.00D-05
          Convergence on gradient requested:  5.00D-04

              XC Information
              --------------
          PerdewBurkeErnzerhof Exchange Functional  1.000          
            Perdew 1991 LDA Correlation Functional  1.000 local    
           PerdewBurkeErnz. Correlation Functional  1.000 non-local

             Grid Information
             ----------------
          Grid used for XC integration:  medium    
          Radial quadrature: Mura-Knowles        
          Angular quadrature: Lebedev. 
          Tag              B.-S. Rad. Rad. Pts. Rad. Cut. Ang. Pts.
          ---              ---------- --------- --------- ---------
          S                   1.00       88          13.0       590
          O                   0.60       49          14.0       434
          H                   0.35       45          13.0       434
          Grid pruning is: on 
          Number of quadrature shells:   329
          Spatial weights used:  Erf1

          Convergence Information
          -----------------------
          Convergence aids based upon iterative change in 
          total energy or number of iterations. 
          Levelshifting, if invoked, occurs when the 
          HOMO/LUMO gap drops below (HL_TOL):  1.00D-02
          DIIS, if invoked, will attempt to extrapolate 
          using up to (NFOCK): 10 stored Fock matrices.

                    Damping(40%)  Levelshifting(0.0)       DIIS
                  --------------- ------------------- ---------------
          dE  on:    start            ASAP                start   
          dE off:  200 iters        200 iters           200 iters 


      Screening Tolerance Information
      -------------------------------
          Density screening/tol_rho:  1.00D-10
          AO Gaussian exp screening on grid/accAOfunc:  14
          CD Gaussian exp screening on grid/accCDfunc:  20
          XC Gaussian exp screening on grid/accXCfunc:  20
          Schwarz screening/accCoul:  1.00D-08



                            NWChem DFT Gradient Module
                            --------------------------



  charge          =  -1.00
  wavefunction    = closed shell



                         DFT ENERGY GRADIENTS

    atom               coordinates                        gradient
                 x          y          z           x          y          z
   1 S      -0.019176  -0.010470  -0.099473    0.000025   0.000033   0.000112
   2 O       0.025854   2.740047  -0.661494   -0.000002  -0.000032   0.000048
   3 O       2.376174  -1.341482  -0.723929   -0.000061   0.000011   0.000082
   4 O      -0.160163  -0.162143   3.145816    0.000094   0.000018  -0.000055
   5 O      -2.367703  -1.344183  -0.806857    0.000003  -0.000015  -0.000050
   6 H       1.465023   0.535553   3.653448   -0.000058  -0.000015  -0.000137

                 ----------------------------------------
                 |  Time  |  1-e(secs)   |  2-e(secs)   |
                 ----------------------------------------
                 |  CPU   |       0.01   |      13.16   |
                 ----------------------------------------
                 |  WALL  |       0.01   |      13.25   |
                 ----------------------------------------

  Step       Energy      Delta E   Gmax     Grms     Xrms     Xmax   Walltime
  ---- ---------------- -------- -------- -------- -------- -------- --------
@    7    -699.44728744 -4.1D-07  0.00014  0.00006  0.00044  0.00114    445.2
                                     ok       ok       ok       ok  


      ----------------------
      Optimization converged
      ----------------------


  Step       Energy      Delta E   Gmax     Grms     Xrms     Xmax   Walltime
  ---- ---------------- -------- -------- -------- -------- -------- --------
@    7    -699.44728744 -4.1D-07  0.00014  0.00006  0.00044  0.00114    445.2
                                     ok       ok       ok       ok  



                         Geometry "geometry" -> "geometry"
                         ---------------------------------

 Output coordinates in angstroms (scale by  1.889725989 to convert to a.u.)

  No.       Tag          Charge          X              Y              Z
 ---- ---------------- ---------- -------------- -------------- --------------
    1 S                   16.0000    -0.01014757    -0.00554068    -0.05263907
    2 O                    8.0000     0.01368123     1.44997028    -0.35004764
    3 O                    8.0000     1.25741738    -0.70988163    -0.38308672
    4 O                    8.0000    -0.08475444    -0.08580227     1.66469404
    5 O                    8.0000    -1.25293448    -0.71131127    -0.42697042
    6 H                    1.0000     0.77525689     0.28340256     1.93332181

      Atomic Mass 
      ----------- 

      S                 31.972070
      O                 15.994910
      H                  1.007825


 Effective nuclear repulsion energy (a.u.)     270.1740067997

            Nuclear Dipole moment (a.u.) 
            ----------------------------
        X                 Y               Z
 ---------------- ---------------- ----------------
     0.1515053677    -0.4940638601     9.6901572955

 ==============================================================================
                                internuclear distances
 ------------------------------------------------------------------------------
       center one      |      center two      | atomic units |  angstroms
 ------------------------------------------------------------------------------
    2 O                |   1 S                |     2.80771  |     1.48578
    3 O                |   1 S                |     2.81056  |     1.48728
    4 O                |   1 S                |     3.25189  |     1.72083
    5 O                |   1 S                |     2.79191  |     1.47742
    6 H                |   4 O                |     1.84003  |     0.97370
 ------------------------------------------------------------------------------
                         number of included internuclear distances:          5
 ==============================================================================



 ==============================================================================
                                 internuclear angles
 ------------------------------------------------------------------------------
        center 1       |       center 2       |       center 3       |  degrees
 ------------------------------------------------------------------------------
    2 O                |   1 S                |   3 O                |   113.94
    2 O                |   1 S                |   4 O                |   104.25
    2 O                |   1 S                |   5 O                |   115.52
    3 O                |   1 S                |   4 O                |   103.69
    3 O                |   1 S                |   5 O                |   115.75
    4 O                |   1 S                |   5 O                |   101.19
    1 S                |   4 O                |   6 H                |   102.67
 ------------------------------------------------------------------------------
                            number of included internuclear angles:          7
 ==============================================================================




 Task  times  cpu:      437.5s     wall:      445.0s


                                NWChem Input Module
                                -------------------


 Summary of allocated global arrays
-----------------------------------
  No active global arrays


MA_summarize_allocated_blocks: starting scan ...
MA_summarize_allocated_blocks: scan completed: 0 heap blocks, 0 stack blocks
MA usage statistics:

	allocation statistics:
					      heap	     stack
					      ----	     -----
	current number of blocks	         0	         0
	maximum number of blocks	        24	        53
	current total bytes		         0	         0
	maximum total bytes		 269093992	  65687512
	maximum total K-bytes		    269094	     65688
	maximum total M-bytes		       270	        66


                                     CITATION
                                     --------
                Please cite the following reference when publishing
                           results obtained with NWChem:

          E. Apra, E. J. Bylaska, W. A. de Jong, N. Govind, K. Kowalski,
       T. P. Straatsma, M. Valiev, H. J. J. van Dam, Y. Alexeev, J. Anchell,
       V. Anisimov, F. W. Aquino, R. Atta-Fynn, J. Autschbach, N. P. Bauman,
     J. C. Becca, D. E. Bernholdt, K. Bhaskaran-Nair, S. Bogatko, P. Borowski,
         J. Boschen, J. Brabec, A. Bruner, E. Cauet, Y. Chen, G. N. Chuev,
      C. J. Cramer, J. Daily, M. J. O. Deegan, T. H. Dunning Jr., M. Dupuis,
   K. G. Dyall, G. I. Fann, S. A. Fischer, A. Fonari, H. Fruchtl, L. Gagliardi,
      J. Garza, N. Gawande, S. Ghosh, K. Glaesemann, A. W. Gotz, J. Hammond,
       V. Helms, E. D. Hermes, K. Hirao, S. Hirata, M. Jacquelin, L. Jensen,
   B. G. Johnson, H. Jonsson, R. A. Kendall, M. Klemm, R. Kobayashi, V. Konkov,
      S. Krishnamoorthy, M. Krishnan, Z. Lin, R. D. Lins, R. J. Littlefield,
      A. J. Logsdail, K. Lopata, W. Ma, A. V. Marenich, J. Martin del Campo,
   D. Mejia-Rodriguez, J. E. Moore, J. M. Mullin, T. Nakajima, D. R. Nascimento,
    J. A. Nichols, P. J. Nichols, J. Nieplocha, A. Otero-de-la-Roza, B. Palmer,
    A. Panyala, T. Pirojsirikul, B. Peng, R. Peverati, J. Pittner, L. Pollack,
   R. M. Richard, P. Sadayappan, G. C. Schatz, W. A. Shelton, D. W. Silverstein,
   D. M. A. Smith, T. A. Soares, D. Song, M. Swart, H. L. Taylor, G. S. Thomas,
            V. Tipparaju, D. G. Truhlar, K. Tsemekhman, T. Van Voorhis,
      A. Vazquez-Mayagoitia, P. Verma, O. Villa, A. Vishnu, K. D. Vogiatzis,
        D. Wang, J. H. Weare, M. J. Williamson, T. L. Windus, K. Wolinski,
        A. T. Wong, Q. Wu, C. Yang, Q. Yu, M. Zacharias, Z. Zhang, Y. Zhao,
                                and R. J. Harrison
                        "NWChem: Past, present, and future
                         J. Chem. Phys. 152, 184102 (2020)
                               doi:10.1063/5.0004997

                                      AUTHORS
                                      -------
  E. Apra, E. J. Bylaska, N. Govind, K. Kowalski, M. Valiev, D. Mejia-Rodriguez,
       A. Kunitsa, N. P. Bauman, A. Panyala, W. A. de Jong, T. P. Straatsma,
   H. J. J. van Dam, D. Wang, T. L. Windus, J. Hammond, J. Autschbach, A. Woods,
    K. Bhaskaran-Nair, J. Brabec, K. Lopata, S. A. Fischer, S. Krishnamoorthy,
     M. Jacquelin, W. Ma, M. Klemm, O. Villa, Y. Chen, V. Anisimov, F. Aquino,
     S. Hirata, M. T. Hackler, E. Hermes, L. Jensen, J. E. Moore, J. C. Becca,
      V. Konjkov, T. Risthaus, M. Malagoli, A. Marenich, A. Otero-de-la-Roza,
        J. Mullin, P. Nichols, R. Peverati, J. Pittner, Y. Zhao, P.-D. Fan,
        A. Fonari, M. J. Williamson, R. J. Harrison, J. R. Rehr, M. Dupuis,
     D. Silverstein, D. M. A. Smith, J. Nieplocha, V. Tipparaju, M. Krishnan,
     B. E. Van Kuiken, A. Vazquez-Mayagoitia, M. Swart, Q. Wu, T. Van Voorhis,
     A. A. Auer, M. Nooijen, L. D. Crosby, E. Brown, G. Cisneros, G. I. Fann,
   H. Fruchtl, J. Garza, K. Hirao, R. A. Kendall, J. A. Nichols, K. Tsemekhman,
    K. Wolinski, J. Anchell, D. E. Bernholdt, P. Borowski, T. Clark, D. Clerc,
   H. Dachsel, M. J. O. Deegan, K. Dyall, D. Elwood, E. Glendening, M. Gutowski,
   A. C. Hess, J. Jaffe, B. G. Johnson, J. Ju, R. Kobayashi, R. Kutteh, Z. Lin,
   R. Littlefield, X. Long, B. Meng, T. Nakajima, S. Niu, L. Pollack, M. Rosing,
   K. Glaesemann, G. Sandrone, M. Stave, H. Taylor, G. Thomas, J. H. van Lenthe,
                               A. T. Wong, Z. Zhang.

 Total times  cpu:      437.6s     wall:      445.3s
