 argument  1 = 0e/mol.nwi
                                         
                                         


             Northwest Computational Chemistry Package (NWChem) 7.2.2
             --------------------------------------------------------


                    Environmental Molecular Sciences Laboratory
                       Pacific Northwest National Laboratory
                                Richland, WA 99352

                              Copyright (c) 1994-2022
                       Pacific Northwest National Laboratory
                            Battelle Memorial Institute

             NWChem is an open-source computational chemistry package
                        distributed under the terms of the
                      Educational Community License (ECL) 2.0
             A copy of the license is included with this distribution
                              in the LICENSE.TXT file

                                  ACKNOWLEDGMENT
                                  --------------

            This software and its documentation were developed at the
            EMSL at Pacific Northwest National Laboratory, a multiprogram
            national laboratory, operated for the U.S. Department of Energy
            by Battelle under Contract Number DE-AC05-76RL01830. Support
            for this work was provided by the Department of Energy Office
            of Biological and Environmental Research, Office of Basic
            Energy Sciences, and the Office of Advanced Scientific Computing.


           Job information
           ---------------

    hostname        = r375.ib.bridges2.psc.edu
    program         = nwchem
    date            = Tue Oct  1 15:16:55 2024

    compiled        = Mon_Mar_18_17:03:37_2024
    source          = /ocean/projects/pscstaff/mmadrid/nwchem-7.2.2
    nwchem branch   = 7.2.2
    nwchem revision = 74936fb9
    ga revision     = 5.8.0
    use scalapack   = F
    input           = 0e/mol.nwi
    prefix          = dft.
    data base       = .//dft.db
    status          = startup
    nproc           =       15
    time left       =     -1s



           Memory information
           ------------------

    heap     =   67108864 doubles =    512.0 Mbytes
    stack    =   67108861 doubles =    512.0 Mbytes
    global   =  134217728 doubles =   1024.0 Mbytes (distinct from heap & stack)
    total    =  268435453 doubles =   2048.0 Mbytes
    verify   = yes
    hardfail = no 


           Directory information
           ---------------------

  0 permanent = ./
  0 scratch   = /jet/home/hmt47/nwchem_scratch/




                                NWChem Input Module
                                -------------------


  library name resolved from: environment
  library file name is: </opt/packages/nwchem/nwchem7.2.2/share/nwchem/libraries/>
  


 Summary of "ao basis" -> "" (cartesian)
 ------------------------------------------------------------------------------
       Tag                 Description            Shells   Functions and Types
 ---------------- ------------------------------  ------  ---------------------
 *                        aug-cc-pVTZ                 on all atoms 


  pbe96 is a nonlocal functional; adding pw91lda local functional. 

 Scaling coordinates for geometry "geometry" by  1.889725989
 (inverse scale =  0.529177249)



                             Geometry "geometry" -> ""
                             -------------------------

 Output coordinates in angstroms (scale by  1.889725989 to convert to a.u.)

  No.       Tag          Charge          X              Y              Z
 ---- ---------------- ---------- -------------- -------------- --------------
    1 S                   16.0000    -0.01014757    -0.00554068    -0.05263907
    2 O                    8.0000     0.01368123     1.44997028    -0.35004764
    3 O                    8.0000     1.25741738    -0.70988163    -0.38308672
    4 O                    8.0000    -0.08475444    -0.08580227     1.66469404
    5 O                    8.0000    -1.25293448    -0.71131127    -0.42697042
    6 H                    1.0000     0.77525689     0.28340256     1.93332181

      Atomic Mass 
      ----------- 

      S                 31.972070
      O                 15.994910
      H                  1.007825


 Effective nuclear repulsion energy (a.u.)     270.1740071227

            Nuclear Dipole moment (a.u.) 
            ----------------------------
        X                 Y               Z
 ---------------- ---------------- ----------------
     0.1515055497    -0.4940640220     9.6901572766


            XYZ format geometry
            -------------------
     6
 geometry
 S                    -0.01014757    -0.00554068    -0.05263907
 O                     0.01368123     1.44997028    -0.35004764
 O                     1.25741738    -0.70988163    -0.38308672
 O                    -0.08475444    -0.08580227     1.66469404
 O                    -1.25293448    -0.71131127    -0.42697042
 H                     0.77525689     0.28340256     1.93332181

 ==============================================================================
                                internuclear distances
 ------------------------------------------------------------------------------
       center one      |      center two      | atomic units |  angstroms
 ------------------------------------------------------------------------------
    2 O                |   1 S                |     2.80771  |     1.48578
    3 O                |   1 S                |     2.81056  |     1.48728
    4 O                |   1 S                |     3.25189  |     1.72083
    5 O                |   1 S                |     2.79191  |     1.47742
    6 H                |   4 O                |     1.84003  |     0.97370
 ------------------------------------------------------------------------------
                         number of included internuclear distances:          5
 ==============================================================================



 ==============================================================================
                                 internuclear angles
 ------------------------------------------------------------------------------
        center 1       |       center 2       |       center 3       |  degrees
 ------------------------------------------------------------------------------
    2 O                |   1 S                |   3 O                |   113.94
    2 O                |   1 S                |   4 O                |   104.25
    2 O                |   1 S                |   5 O                |   115.52
    3 O                |   1 S                |   4 O                |   103.69
    3 O                |   1 S                |   5 O                |   115.75
    4 O                |   1 S                |   5 O                |   101.19
    1 S                |   4 O                |   6 H                |   102.67
 ------------------------------------------------------------------------------
                            number of included internuclear angles:          7
 ==============================================================================




                                 NWChem DFT Module
                                 -----------------


                      Basis "ao basis" -> "ao basis" (cartesian)
                      -----
  S (Sulphur)
  -----------
            Exponent  Coefficients 
       -------------- ---------------------------------------------------------
  1 S  3.74100000E+05  0.000054
  1 S  5.60500000E+04  0.000421
  1 S  1.27600000E+04  0.002207
  1 S  3.61500000E+03  0.009193
  1 S  1.18300000E+03  0.032112
  1 S  4.28800000E+02  0.094668
  1 S  1.67800000E+02  0.223630
  1 S  6.94700000E+01  0.374393
  1 S  2.98400000E+01  0.329108
  1 S  1.27200000E+01  0.084704
  1 S  5.24400000E+00  0.000441
  1 S  2.21900000E+00  0.001648
  1 S  3.49000000E-01  0.000301

  2 S  3.74100000E+05 -0.000015
  2 S  5.60500000E+04 -0.000116
  2 S  1.27600000E+04 -0.000612
  2 S  3.61500000E+03 -0.002554
  2 S  1.18300000E+03 -0.009087
  2 S  4.28800000E+02 -0.027705
  2 S  1.67800000E+02 -0.072002
  2 S  6.94700000E+01 -0.146439
  2 S  2.98400000E+01 -0.195150
  2 S  1.27200000E+01  0.008192
  2 S  5.24400000E+00  0.516601
  2 S  2.21900000E+00  0.542178
  2 S  3.49000000E-01 -0.009181

  3 S  3.74100000E+05  0.000004
  3 S  5.60500000E+04  0.000034
  3 S  1.27600000E+04  0.000178
  3 S  3.61500000E+03  0.000741
  3 S  1.18300000E+03  0.002646
  3 S  4.28800000E+02  0.008075
  3 S  1.67800000E+02  0.021228
  3 S  6.94700000E+01  0.043832
  3 S  2.98400000E+01  0.061272
  3 S  1.27200000E+01 -0.003615
  3 S  5.24400000E+00 -0.204510
  3 S  2.21900000E+00 -0.381871
  3 S  3.49000000E-01  0.714147

  4 S  7.76700000E-01  1.000000

  5 S  1.32200000E-01  1.000000

  6 S  4.97000000E-02  1.000000

  7 P  5.74400000E+02  0.002423
  7 P  1.35800000E+02  0.019280
  7 P  4.31900000E+01  0.088540
  7 P  1.58700000E+01  0.254654
  7 P  6.20800000E+00  0.433984
  7 P  2.48300000E+00  0.354953
  7 P  3.22900000E-01 -0.005030

  8 P  5.74400000E+02 -0.000620
  8 P  1.35800000E+02 -0.004939
  8 P  4.31900000E+01 -0.023265
  8 P  1.58700000E+01 -0.068520
  8 P  6.20800000E+00 -0.123896
  8 P  2.48300000E+00 -0.096950
  8 P  3.22900000E-01  0.569394

  9 P  8.68800000E-01  1.000000

 10 P  1.09800000E-01  1.000000

 11 P  3.51000000E-02  1.000000

 12 D  2.69000000E-01  1.000000

 13 D  8.19000000E-01  1.000000

 14 D  1.01000000E-01  1.000000

 15 F  5.57000000E-01  1.000000

 16 F  2.18000000E-01  1.000000

  O (Oxygen)
  ----------
            Exponent  Coefficients 
       -------------- ---------------------------------------------------------
  1 S  1.53300000E+04  0.000508
  1 S  2.29900000E+03  0.003929
  1 S  5.22400000E+02  0.020243
  1 S  1.47300000E+02  0.079181
  1 S  4.75500000E+01  0.230687
  1 S  1.67600000E+01  0.433118
  1 S  6.20700000E+00  0.350260
  1 S  6.88200000E-01 -0.008154

  2 S  1.53300000E+04 -0.000115
  2 S  2.29900000E+03 -0.000895
  2 S  5.22400000E+02 -0.004636
  2 S  1.47300000E+02 -0.018724
  2 S  4.75500000E+01 -0.058463
  2 S  1.67600000E+01 -0.136463
  2 S  6.20700000E+00 -0.175740
  2 S  6.88200000E-01  0.603418

  3 S  1.75200000E+00  1.000000

  4 S  2.38400000E-01  1.000000

  5 S  7.37600000E-02  1.000000

  6 P  3.44600000E+01  0.015928
  6 P  7.74900000E+00  0.099740
  6 P  2.28000000E+00  0.310492

  7 P  7.15600000E-01  1.000000

  8 P  2.14000000E-01  1.000000

  9 P  5.97400000E-02  1.000000

 10 D  2.31400000E+00  1.000000

 11 D  6.45000000E-01  1.000000

 12 D  2.14000000E-01  1.000000

 13 F  1.42800000E+00  1.000000

 14 F  5.00000000E-01  1.000000

  H (Hydrogen)
  ------------
            Exponent  Coefficients 
       -------------- ---------------------------------------------------------
  1 S  3.38700000E+01  0.006068
  1 S  5.09500000E+00  0.045308
  1 S  1.15900000E+00  0.202822

  2 S  3.25800000E-01  1.000000

  3 S  1.02700000E-01  1.000000

  4 S  2.52600000E-02  1.000000

  5 P  1.40700000E+00  1.000000

  6 P  3.88000000E-01  1.000000

  7 P  1.02000000E-01  1.000000

  8 D  1.05700000E+00  1.000000

  9 D  2.47000000E-01  1.000000



 Summary of "ao basis" -> "ao basis" (cartesian)
 ------------------------------------------------------------------------------
       Tag                 Description            Shells   Functions and Types
 ---------------- ------------------------------  ------  ---------------------
 S                        aug-cc-pVTZ               16       59   6s5p3d2f
 O                        aug-cc-pVTZ               14       55   5s4p3d2f
 H                        aug-cc-pVTZ                9       25   4s3p2d




 Summary of "ao basis" -> "ao basis" (cartesian)
 ------------------------------------------------------------------------------
       Tag                 Description            Shells   Functions and Types
 ---------------- ------------------------------  ------  ---------------------
 S                        aug-cc-pVTZ               16       59   6s5p3d2f
 O                        aug-cc-pVTZ               14       55   5s4p3d2f
 H                        aug-cc-pVTZ                9       25   4s3p2d


  Caching 1-el integrals 

            General Information
            -------------------
          SCF calculation type: DFT
          Wavefunction type:  spin polarized.
          No. of atoms     :     6
          No. of electrons :    49
           Alpha electrons :    25
            Beta electrons :    24
          Charge           :     0
          Spin multiplicity:     2
          Use of symmetry is: off; symmetry adaption is: off
          Maximum number of iterations: 200
          AO basis - number of functions:   304
                     number of shells:    81
          Convergence on energy requested:  1.00D-06
          Convergence on density requested:  1.00D-05
          Convergence on gradient requested:  5.00D-04

              XC Information
              --------------
          PerdewBurkeErnzerhof Exchange Functional  1.000          
            Perdew 1991 LDA Correlation Functional  1.000 local    
           PerdewBurkeErnz. Correlation Functional  1.000 non-local

             Grid Information
             ----------------
          Grid used for XC integration:  medium    
          Radial quadrature: Mura-Knowles        
          Angular quadrature: Lebedev. 
          Tag              B.-S. Rad. Rad. Pts. Rad. Cut. Ang. Pts.
          ---              ---------- --------- --------- ---------
          S                   1.00       88          13.0       590
          O                   0.60       49          14.0       434
          H                   0.35       45          13.0       434
          Grid pruning is: on 
          Number of quadrature shells:   329
          Spatial weights used:  Erf1

          Convergence Information
          -----------------------
          Convergence aids based upon iterative change in 
          total energy or number of iterations. 
          Levelshifting, if invoked, occurs when the 
          HOMO/LUMO gap drops below (HL_TOL):  1.00D-02
          DIIS, if invoked, will attempt to extrapolate 
          using up to (NFOCK): 10 stored Fock matrices.

                    Damping(40%)  Levelshifting(0.0)       DIIS
                  --------------- ------------------- ---------------
          dE  on:    start            0.00D+00            start   
          dE off:  200 iters          0.00D+00          200 iters 


      Screening Tolerance Information
      -------------------------------
          Density screening/tol_rho:  1.00D-10
          AO Gaussian exp screening on grid/accAOfunc:  14
          CD Gaussian exp screening on grid/accCDfunc:  20
          XC Gaussian exp screening on grid/accXCfunc:  20
          Schwarz screening/accCoul:  1.00D-08


 Forcing the number of linearly dependent vectors to be  0

      Superposition of Atomic Density Guess
      -------------------------------------

 Sum of atomic energies:        -697.11195596
   Time after variat. SCF:      0.7
   Time prior to 1st pass:      0.7

 Grid_pts file          = /jet/home/hmt47/nwchem_scratch//dft.gridpts.00
 Record size in doubles =  12289        No. of grid_pts per rec  =   3070
 Max. records in memory =      6        Max. recs in file   =  67550051


           Memory utilization after 1st SCF pass: 
           Heap Space remaining (MW):       33.47            33472704
          Stack Space remaining (MW):       67.11            67106284

   convergence    iter        energy       DeltaE   RMS-Dens  Diis-err    time
 ---------------- ----- ----------------- --------- --------- ---------  ------
 d=40,ls=0.0,diis     1   -700.3767430322 -9.71D+02  6.16D-03  1.48D+01     1.8
                                                     6.04D-03  1.37D+01
 d=40,ls=0.0,diis     2   -699.6659905262  7.11D-01  4.64D-03  2.55D+00     6.2
                                                     5.05D-03  2.35D+00
 d=40,ls=0.0,diis     3   -699.0055957246  6.60D-01  1.44D-03  1.11D+00    10.5
                                                     2.02D-03  9.88D-01
 d=40,ls=0.0,diis     4   -699.2036729162 -1.98D-01  6.18D-04  2.60D-01    14.9
                                                     8.95D-04  2.39D-01
 d=40,ls=0.0,diis     5   -699.2570679985 -5.34D-02  4.23D-04  6.00D-02    19.3
                                                     1.51D-03  5.29D-02
  Resetting Diis
 d=40,ls=0.0,diis     6   -699.2558457113  1.22D-03  1.78D-04  4.58D-02    23.6
                                                     9.64D-04  3.95D-02
 d=40,ls=0.0,diis     7   -699.2759632261 -2.01D-02  3.24D-04  5.95D-03    28.0
                                                     9.52D-04  5.33D-03
 d=40,ls=0.0,diis     8   -699.2592285120  1.67D-02  1.65D-04  4.10D-02    32.4
                                                     6.78D-04  4.02D-02
 d=40,ls=0.0,diis     9   -699.2769523478 -1.77D-02  8.34D-05  4.81D-03    36.8
                                                     1.78D-04  4.66D-03
 d=40,ls=0.0,diis    10   -699.2798278618 -2.88D-03  5.27D-05  1.08D-03    41.2
                                                     1.40D-04  9.23D-04
 d=40,ls=0.0,diis    11   -699.2807315702 -9.04D-04  3.31D-05  3.85D-04    45.7
                                                     4.96D-05  3.23D-04
 d=40,ls=0.0,diis    12   -699.2811409610 -4.09D-04  2.47D-05  7.73D-05    50.1
                                                     2.51D-05  4.96D-05
 d=40,ls=0.0,diis    13   -699.2812871441 -1.46D-04  6.65D-06  1.14D-05    54.5
                                                     3.02D-05  9.72D-06
 d=40,ls=0.0,diis    14   -699.2813429778 -5.58D-05  5.73D-06  8.29D-06    58.9
                                                     4.79D-06  4.59D-06
 d=40,ls=0.0,diis    15   -699.2813672986 -2.43D-05  3.08D-06  2.66D-06    63.3
                                                     5.18D-06  1.39D-06
 d=40,ls=0.0,diis    16   -699.2813767373 -9.44D-06  2.15D-06  1.65D-06    67.8
                                                     2.89D-06  1.05D-06
 d=40,ls=0.0,diis    17   -699.2813807355 -4.00D-06  1.70D-06  7.57D-07    72.1
                                                     1.65D-06  5.30D-07
 d=40,ls=0.0,diis    18   -699.2813824446 -1.71D-06  7.70D-07  1.55D-07    76.6
                                                     8.40D-07  1.12D-07
 d=40,ls=0.0,diis    19   -699.2813831061 -6.61D-07  3.05D-07  2.58D-08    81.0
                                                     3.48D-07  1.87D-08


         Total DFT energy =     -699.281383106091
      One electron energy =    -1499.417571743650
           Coulomb energy =      589.863309224977
    Exchange-Corr. energy =      -59.901127710161
 Nuclear repulsion energy =      270.174007122742

 Numeric. integr. density =       48.999999970595

     Total iterative time =     80.3s



                    DFT Final Alpha Molecular Orbital Analysis
                    ------------------------------------------

 Vector    1  Occ=1.000000D+00  E=-8.834789D+01
              MO Center= -1.0D-02, -5.5D-03, -5.3D-02, r^2= 3.6D-03
   Bfn.  Coefficient  Atom+Function         Bfn.  Coefficient  Atom+Function  
  ----- ------------  ---------------      ----- ------------  ---------------
     1      1.005650  1 S  s                  5     -0.163729  1 S  s          
     3      0.048645  1 S  s                  2      0.036748  1 S  s          
   118      0.034023  3 O  s                 63      0.033306  2 O  s          
   183     -0.032294  4 O  pz               228      0.030784  5 O  s          
   173      0.029535  4 O  s          

 Vector    2  Occ=1.000000D+00  E=-1.885315D+01
              MO Center=  1.2D+00, -7.0D-01, -3.8D-01, r^2= 5.3D-02
   Bfn.  Coefficient  Atom+Function         Bfn.  Coefficient  Atom+Function  
  ----- ------------  ---------------      ----- ------------  ---------------
   115      0.975837  3 O  s                 60      0.077173  2 O  s          
   118     -0.066794  3 O  s                117      0.064161  3 O  s          
     6      0.047447  1 S  s                 16     -0.040620  1 S  px         
     5      0.029920  1 S  s          

 Vector    3  Occ=1.000000D+00  E=-1.885307D+01
              MO Center=  2.1D-02,  1.4D+00, -3.5D-01, r^2= 5.3D-02
   Bfn.  Coefficient  Atom+Function         Bfn.  Coefficient  Atom+Function  
  ----- ------------  ---------------      ----- ------------  ---------------
    60      0.975745  2 O  s                115     -0.076123  3 O  s          
    62      0.063896  2 O  s                 63     -0.062808  2 O  s          
     6      0.038404  1 S  s                 17     -0.038595  1 S  py         

 Vector    4  Occ=1.000000D+00  E=-1.884716D+01
              MO Center= -1.3D+00, -7.1D-01, -4.3D-01, r^2= 1.5D-02
   Bfn.  Coefficient  Atom+Function         Bfn.  Coefficient  Atom+Function  
  ----- ------------  ---------------      ----- ------------  ---------------
   225      0.978600  5 O  s                228     -0.070826  5 O  s          
   227      0.063581  5 O  s                 16      0.038678  1 S  px         
     5      0.032683  1 S  s          

 Vector    5  Occ=1.000000D+00  E=-1.882579D+01
              MO Center= -8.5D-02, -8.6D-02,  1.7D+00, r^2= 1.5D-02
   Bfn.  Coefficient  Atom+Function         Bfn.  Coefficient  Atom+Function  
  ----- ------------  ---------------      ----- ------------  ---------------
   170      0.981156  4 O  s                172      0.062732  4 O  s          
   173     -0.051543  4 O  s                  5      0.037419  1 S  s          

 Vector    6  Occ=1.000000D+00  E=-7.929175D+00
              MO Center= -1.0D-02, -5.5D-03, -5.2D-02, r^2= 7.7D-02
   Bfn.  Coefficient  Atom+Function         Bfn.  Coefficient  Atom+Function  
  ----- ------------  ---------------      ----- ------------  ---------------
     2      0.891540  1 S  s                  5      0.135978  1 S  s          
     4      0.116121  1 S  s                  3     -0.058133  1 S  s          
   118     -0.043009  3 O  s                 63     -0.042554  2 O  s          
   228     -0.040571  5 O  s                183      0.035489  4 O  pz         
   173     -0.032505  4 O  s                 72      0.028123  2 O  py         

 Vector    7  Occ=1.000000D+00  E=-5.951468D+00
              MO Center= -1.0D-02, -5.5D-03, -5.3D-02, r^2= 6.9D-02
   Bfn.  Coefficient  Atom+Function         Bfn.  Coefficient  Atom+Function  
  ----- ------------  ---------------      ----- ------------  ---------------
     9      1.063361  1 S  pz                12      0.225385  1 S  pz         
     5     -0.161479  1 S  s                  7     -0.128344  1 S  px         
    47     -0.085508  1 S  fyyz              42     -0.084403  1 S  fxxz       
    49     -0.081021  1 S  fzzz             118      0.078508  3 O  s          
    63      0.071088  2 O  s                  8     -0.060960  1 S  py         

 Vector    8  Occ=1.000000D+00  E=-5.950037D+00
              MO Center= -1.0D-02, -5.5D-03, -5.3D-02, r^2= 6.9D-02
   Bfn.  Coefficient  Atom+Function         Bfn.  Coefficient  Atom+Function  
  ----- ------------  ---------------      ----- ------------  ---------------
     8      0.841758  1 S  py                 7     -0.722567  1 S  px         
    11      0.232787  1 S  py                10     -0.203898  1 S  px         
   118      0.095293  3 O  s                 63     -0.081713  2 O  s          
    48     -0.075704  1 S  fyzz              41     -0.071298  1 S  fxxy       
    46     -0.070684  1 S  fyyy              45      0.065104  1 S  fxzz       

 Vector    9  Occ=1.000000D+00  E=-5.949923D+00
              MO Center= -1.0D-02, -5.6D-03, -5.3D-02, r^2= 6.9D-02
   Bfn.  Coefficient  Atom+Function         Bfn.  Coefficient  Atom+Function  
  ----- ------------  ---------------      ----- ------------  ---------------
     7      0.839825  1 S  px                 8      0.722558  1 S  py         
    10      0.245084  1 S  px                11      0.206922  1 S  py         
     9      0.130219  1 S  pz               228      0.125815  5 O  s          
    45     -0.076489  1 S  fxzz              40     -0.072258  1 S  fxxx       
    43     -0.072449  1 S  fxyy             236      0.071651  5 O  px         

 Vector   10  Occ=1.000000D+00  E=-1.127066D+00
              MO Center=  1.5D-02,  9.1D-03, -1.3D-01, r^2= 1.5D+00
   Bfn.  Coefficient  Atom+Function         Bfn.  Coefficient  Atom+Function  
  ----- ------------  ---------------      ----- ------------  ---------------
     3      0.381685  1 S  s                  5     -0.276697  1 S  s          
    63      0.226093  2 O  s                118      0.225613  3 O  s          
   228      0.224353  5 O  s                 61      0.202822  2 O  s          
   116      0.202691  3 O  s                226      0.197417  5 O  s          
   173      0.126044  4 O  s                171      0.108830  4 O  s          

 Vector   11  Occ=1.000000D+00  E=-9.980733D-01
              MO Center=  5.8D-02, -5.4D-01, -3.2D-01, r^2= 1.6D+00
   Bfn.  Coefficient  Atom+Function         Bfn.  Coefficient  Atom+Function  
  ----- ------------  ---------------      ----- ------------  ---------------
   116      0.347157  3 O  s                226     -0.325340  5 O  s          
   118      0.229043  3 O  s                228     -0.215033  5 O  s          
    13      0.157966  1 S  px                 7     -0.119605  1 S  px         
   117      0.095929  3 O  s                227     -0.090011  5 O  s          
    29     -0.082996  1 S  dxy               40      0.077695  1 S  fxxx       

 Vector   12  Occ=1.000000D+00  E=-9.977822D-01
              MO Center= -7.2D-02,  5.5D-01, -3.0D-01, r^2= 1.6D+00
   Bfn.  Coefficient  Atom+Function         Bfn.  Coefficient  Atom+Function  
  ----- ------------  ---------------      ----- ------------  ---------------
    61      0.390229  2 O  s                 63      0.258291  2 O  s          
   226     -0.218350  5 O  s                116     -0.171563  3 O  s          
    14      0.156714  1 S  py               228     -0.143977  5 O  s          
     8     -0.118622  1 S  py               118     -0.115093  3 O  s          
    62      0.107846  2 O  s                 41      0.077818  1 S  fxxy       

 Vector   13  Occ=1.000000D+00  E=-9.715142D-01
              MO Center=  9.6D-02, -1.2D-02,  1.4D+00, r^2= 1.1D+00
   Bfn.  Coefficient  Atom+Function         Bfn.  Coefficient  Atom+Function  
  ----- ------------  ---------------      ----- ------------  ---------------
   171      0.449211  4 O  s                173      0.281306  4 O  s          
   172      0.126853  4 O  s                116     -0.105712  3 O  s          
   280      0.095740  6 H  s                 61     -0.086628  2 O  s          
   281      0.086924  6 H  s                 15      0.085708  1 S  pz         
   226     -0.075971  5 O  s                118     -0.065065  3 O  s          

 Vector   14  Occ=1.000000D+00  E=-6.200083D-01
              MO Center= -2.7D-03, -1.2D-02,  2.9D-01, r^2= 2.8D+00
   Bfn.  Coefficient  Atom+Function         Bfn.  Coefficient  Atom+Function  
  ----- ------------  ---------------      ----- ------------  ---------------
     3      0.389988  1 S  s                226     -0.202486  5 O  s          
    61     -0.184124  2 O  s                116     -0.181990  3 O  s          
   228     -0.163685  5 O  s                  6      0.154385  1 S  s          
    63     -0.151492  2 O  s                118     -0.151549  3 O  s          
   177     -0.132468  4 O  pz               180     -0.129636  4 O  pz         

 Vector   15  Occ=1.000000D+00  E=-5.369598D-01
              MO Center=  1.6D-01,  5.7D-02,  3.4D-01, r^2= 2.6D+00
   Bfn.  Coefficient  Atom+Function         Bfn.  Coefficient  Atom+Function  
  ----- ------------  ---------------      ----- ------------  ---------------
    15      0.203942  1 S  pz               180     -0.145731  4 O  pz         
     3     -0.142589  1 S  s                177     -0.140446  4 O  pz         
     6     -0.136171  1 S  s                116      0.135344  3 O  s          
    61      0.126733  2 O  s                  9     -0.123145  1 S  pz         
   281     -0.121344  6 H  s                175     -0.115286  4 O  px         

 Vector   16  Occ=1.000000D+00  E=-4.999098D-01
              MO Center=  3.4D-01,  1.3D-01, -2.9D-01, r^2= 2.5D+00
   Bfn.  Coefficient  Atom+Function         Bfn.  Coefficient  Atom+Function  
  ----- ------------  ---------------      ----- ------------  ---------------
    14      0.175265  1 S  py               120      0.171896  3 O  px         
   123      0.169324  3 O  px               116      0.167073  3 O  s          
    66     -0.157303  2 O  py                69     -0.153720  2 O  py         
    61     -0.150063  2 O  s                118      0.149143  3 O  s          
    13     -0.138819  1 S  px               234      0.123423  5 O  py         

 Vector   17  Occ=1.000000D+00  E=-4.989053D-01
              MO Center= -4.1D-01, -1.4D-01, -2.1D-01, r^2= 2.5D+00
   Bfn.  Coefficient  Atom+Function         Bfn.  Coefficient  Atom+Function  
  ----- ------------  ---------------      ----- ------------  ---------------
   226      0.194565  5 O  s                230     -0.182220  5 O  px         
   233     -0.179130  5 O  px               228      0.156666  5 O  s          
    13      0.152934  1 S  px                14      0.132406  1 S  py         
   124      0.112536  3 O  py               236     -0.111108  5 O  px         
   121      0.110541  3 O  py               173     -0.105484  4 O  s          

 Vector   18  Occ=1.000000D+00  E=-4.395910D-01
              MO Center=  5.0D-02, -3.6D-02,  9.0D-01, r^2= 2.3D+00
   Bfn.  Coefficient  Atom+Function         Bfn.  Coefficient  Atom+Function  
  ----- ------------  ---------------      ----- ------------  ---------------
   173      0.270649  4 O  s                175     -0.224098  4 O  px         
   178     -0.211183  4 O  px                 5     -0.192457  1 S  s          
   171      0.189579  4 O  s                281     -0.145012  6 H  s          
   174      0.143234  4 O  s                282     -0.127308  6 H  s          
   181     -0.119485  4 O  px               125     -0.108736  3 O  pz         

 Vector   19  Occ=1.000000D+00  E=-4.013935D-01
              MO Center=  2.2D-01,  1.2D-01, -3.7D-01, r^2= 2.6D+00
   Bfn.  Coefficient  Atom+Function         Bfn.  Coefficient  Atom+Function  
  ----- ------------  ---------------      ----- ------------  ---------------
    68      0.218099  2 O  px                65      0.213972  2 O  px         
   120      0.174772  3 O  px               123      0.174381  3 O  px         
    29      0.163686  1 S  dxy              124      0.158211  3 O  py         
   121      0.153073  3 O  py                71      0.138365  2 O  px         
   230      0.131023  5 O  px                23      0.130152  1 S  dxy        

 Vector   20  Occ=1.000000D+00  E=-3.969845D-01
              MO Center= -2.2D-01, -1.0D-01, -3.9D-01, r^2= 2.5D+00
   Bfn.  Coefficient  Atom+Function         Bfn.  Coefficient  Atom+Function  
  ----- ------------  ---------------      ----- ------------  ---------------
   234      0.215059  5 O  py               231      0.210755  5 O  py         
   121      0.170162  3 O  py               124      0.169591  3 O  py         
   237      0.139390  5 O  py                68     -0.137233  2 O  px         
    65     -0.134515  2 O  px               233     -0.129734  5 O  px         
   230     -0.127470  5 O  px                66      0.118611  2 O  py         

 Vector   21  Occ=1.000000D+00  E=-3.741749D-01
              MO Center=  3.4D-01,  2.9D-01,  2.8D-01, r^2= 2.5D+00
   Bfn.  Coefficient  Atom+Function         Bfn.  Coefficient  Atom+Function  
  ----- ------------  ---------------      ----- ------------  ---------------
    70      0.196782  2 O  pz                67      0.193584  2 O  pz         
   176      0.175392  4 O  py               179      0.175915  4 O  py         
   125     -0.170150  3 O  pz               122     -0.167741  3 O  pz         
    26      0.147336  1 S  dyz               32      0.136634  1 S  dyz        
    66      0.129283  2 O  py                73      0.127850  2 O  pz         

 Vector   22  Occ=1.000000D+00  E=-3.583972D-01
              MO Center= -5.0D-01, -2.8D-01,  2.5D-01, r^2= 2.6D+00
   Bfn.  Coefficient  Atom+Function         Bfn.  Coefficient  Atom+Function  
  ----- ------------  ---------------      ----- ------------  ---------------
   235      0.264470  5 O  pz               232      0.262864  5 O  pz         
   177      0.213093  4 O  pz               180      0.213443  4 O  pz         
   238      0.171844  5 O  pz                27     -0.104267  1 S  dzz        
    67      0.101507  2 O  pz                70      0.100783  2 O  pz         
   183      0.095831  4 O  pz                33     -0.093008  1 S  dzz        

 Vector   23  Occ=1.000000D+00  E=-3.404711D-01
              MO Center= -3.0D-02, -9.7D-03, -3.7D-01, r^2= 2.6D+00
   Bfn.  Coefficient  Atom+Function         Bfn.  Coefficient  Atom+Function  
  ----- ------------  ---------------      ----- ------------  ---------------
    68      0.242872  2 O  px                65      0.236089  2 O  px         
   234      0.218021  5 O  py               231      0.212577  5 O  py         
   124     -0.208147  3 O  py               121     -0.202501  3 O  py         
    71      0.174877  2 O  px               127     -0.155826  3 O  py         
   237      0.154512  5 O  py               123     -0.123900  3 O  px         

 Vector   24  Occ=1.000000D+00  E=-3.392293D-01
              MO Center= -1.0D-01, -2.0D-01,  4.4D-02, r^2= 2.9D+00
   Bfn.  Coefficient  Atom+Function         Bfn.  Coefficient  Atom+Function  
  ----- ------------  ---------------      ----- ------------  ---------------
   235     -0.209503  5 O  pz               125      0.206386  3 O  pz         
   232     -0.204039  5 O  pz               122      0.202400  3 O  pz         
    70      0.160726  2 O  pz                67      0.157612  2 O  pz         
   238     -0.149353  5 O  pz               128      0.139058  3 O  pz         
   173      0.124592  4 O  s                175     -0.122601  4 O  px         

 Vector   25  Occ=1.000000D+00  E=-3.063678D-01
              MO Center=  1.1D-01,  8.8D-02,  9.4D-01, r^2= 2.3D+00
   Bfn.  Coefficient  Atom+Function         Bfn.  Coefficient  Atom+Function  
  ----- ------------  ---------------      ----- ------------  ---------------
   179      0.294912  4 O  py               176      0.291060  4 O  py         
   182      0.209098  4 O  py                70     -0.180437  2 O  pz         
    67     -0.175782  2 O  pz               125      0.160665  3 O  pz         
   122      0.156622  3 O  pz                73     -0.142115  2 O  pz         
   178     -0.131655  4 O  px               175     -0.129860  4 O  px         

 Vector   26  Occ=0.000000D+00  E=-5.995963D-02
              MO Center=  3.9D-01,  1.5D-01,  8.0D-01, r^2= 6.0D+00
   Bfn.  Coefficient  Atom+Function         Bfn.  Coefficient  Atom+Function  
  ----- ------------  ---------------      ----- ------------  ---------------
     5      0.985905  1 S  s                  6      0.911823  1 S  s          
   283      0.415560  6 H  s                229     -0.383547  5 O  s          
   173     -0.369972  4 O  s                  3      0.335543  1 S  s          
   118     -0.317240  3 O  s                228     -0.318448  5 O  s          
    63     -0.307484  2 O  s                 64     -0.306887  2 O  s          

 Vector   27  Occ=0.000000D+00  E=-3.113659D-02
              MO Center=  1.2D-02,  5.9D-03, -1.7D-01, r^2= 2.9D+00
   Bfn.  Coefficient  Atom+Function         Bfn.  Coefficient  Atom+Function  
  ----- ------------  ---------------      ----- ------------  ---------------
     6      1.126956  1 S  s                  5     -0.484097  1 S  s          
   229     -0.465902  5 O  s                 64     -0.411956  2 O  s          
   119     -0.399411  3 O  s                174     -0.355014  4 O  s          
    15     -0.308131  1 S  pz                18     -0.304785  1 S  pz         
    21     -0.293515  1 S  pz                12     -0.277299  1 S  pz         

 Vector   28  Occ=0.000000D+00  E=-1.239392D-02
              MO Center=  9.5D-01,  3.8D-01,  1.5D+00, r^2= 6.6D+00
   Bfn.  Coefficient  Atom+Function         Bfn.  Coefficient  Atom+Function  
  ----- ------------  ---------------      ----- ------------  ---------------
     6      2.263501  1 S  s                283     -1.028230  6 H  s          
     5      0.989537  1 S  s                229     -0.682405  5 O  s          
    64     -0.570527  2 O  s                119     -0.550404  3 O  s          
   174     -0.544950  4 O  s                186      0.433298  4 O  pz         
     3      0.336154  1 S  s                 75      0.257870  2 O  py         

 Vector   29  Occ=0.000000D+00  E= 2.416664D-02
              MO Center= -3.8D-01, -2.3D-01,  1.7D-01, r^2= 1.3D+01
   Bfn.  Coefficient  Atom+Function         Bfn.  Coefficient  Atom+Function  
  ----- ------------  ---------------      ----- ------------  ---------------
    19      1.868322  1 S  px               229      1.512624  5 O  s          
    16      1.191985  1 S  px               119     -1.001927  3 O  s          
    20      0.990863  1 S  py                64     -0.889208  2 O  s          
    17      0.580294  1 S  py               283     -0.478877  6 H  s          
     6      0.402030  1 S  s                174      0.376977  4 O  s          

 Vector   30  Occ=0.000000D+00  E= 2.487884D-02
              MO Center=  2.4D-01,  1.8D-01, -9.0D-03, r^2= 1.4D+01
   Bfn.  Coefficient  Atom+Function         Bfn.  Coefficient  Atom+Function  
  ----- ------------  ---------------      ----- ------------  ---------------
    20      1.887675  1 S  py                64     -1.795517  2 O  s          
   119      1.620732  3 O  s                 17      1.296288  1 S  py         
    19     -0.981420  1 S  px                16     -0.704455  1 S  px         
   240     -0.382618  5 O  py                58     -0.357910  1 S  fyzz       
   129     -0.349076  3 O  px                56     -0.340154  1 S  fyyy       

 Vector   31  Occ=0.000000D+00  E= 2.962062D-02
              MO Center= -2.7D-02, -3.1D-02, -1.8D+00, r^2= 9.1D+00
   Bfn.  Coefficient  Atom+Function         Bfn.  Coefficient  Atom+Function  
  ----- ------------  ---------------      ----- ------------  ---------------
     6      2.670295  1 S  s                229     -2.136515  5 O  s          
    21     -1.799281  1 S  pz                64     -1.776175  2 O  s          
   119     -1.780188  3 O  s                 18     -1.491097  1 S  pz         
   174      0.850874  4 O  s                  5      0.690813  1 S  s          
   283      0.638596  6 H  s                 37      0.630310  1 S  dyy        

 Vector   32  Occ=0.000000D+00  E= 4.937911D-02
              MO Center= -2.4D-01,  3.6D-02,  7.7D-01, r^2= 7.9D+00
   Bfn.  Coefficient  Atom+Function         Bfn.  Coefficient  Atom+Function  
  ----- ------------  ---------------      ----- ------------  ---------------
   174      2.583539  4 O  s                282     -1.880691  6 H  s          
   229      1.214531  5 O  s                  6     -1.067831  1 S  s          
    19      0.710135  1 S  px                21     -0.651829  1 S  pz         
   283     -0.596733  6 H  s                290      0.573359  6 H  px         
     5     -0.535649  1 S  s                292      0.516354  6 H  pz         

 Vector   33  Occ=0.000000D+00  E= 5.557922D-02
              MO Center=  6.8D-01,  1.7D-01,  1.4D+00, r^2= 1.1D+01
   Bfn.  Coefficient  Atom+Function         Bfn.  Coefficient  Atom+Function  
  ----- ------------  ---------------      ----- ------------  ---------------
     6      7.647253  1 S  s                229     -2.148923  5 O  s          
   283     -2.124111  6 H  s                119     -1.985599  3 O  s          
    21      1.186601  1 S  pz               282     -0.896742  6 H  s          
    64     -0.853258  2 O  s                174     -0.721262  4 O  s          
     5     -0.696246  1 S  s                 20     -0.685074  1 S  py         

 Vector   34  Occ=0.000000D+00  E= 5.729599D-02
              MO Center=  3.7D-01,  7.9D-02,  1.2D+00, r^2= 1.1D+01
   Bfn.  Coefficient  Atom+Function         Bfn.  Coefficient  Atom+Function  
  ----- ------------  ---------------      ----- ------------  ---------------
     6      6.820091  1 S  s                 64     -1.967976  2 O  s          
   283     -1.925466  6 H  s                229     -1.717403  5 O  s          
    21      1.084554  1 S  pz               282     -1.021254  6 H  s          
   119     -0.740952  3 O  s                  5     -0.628195  1 S  s          
    20      0.627772  1 S  py                17     -0.511460  1 S  py         

 Vector   35  Occ=0.000000D+00  E= 6.591583D-02
              MO Center=  4.6D-01,  2.9D-01, -1.5D-01, r^2= 1.3D+01
   Bfn.  Coefficient  Atom+Function         Bfn.  Coefficient  Atom+Function  
  ----- ------------  ---------------      ----- ------------  ---------------
     6      9.996497  1 S  s                174     -5.528383  4 O  s          
   119     -4.090112  3 O  s                 64     -3.971764  2 O  s          
   282      3.025909  6 H  s                 21      2.641358  1 S  pz         
   229     -2.491463  5 O  s                 19      1.448679  1 S  px         
   184     -1.082324  4 O  px                75      1.065333  2 O  py         

 Vector   36  Occ=0.000000D+00  E= 8.702777D-02
              MO Center=  9.5D-02,  7.8D-03,  1.3D-01, r^2= 1.3D+01
   Bfn.  Coefficient  Atom+Function         Bfn.  Coefficient  Atom+Function  
  ----- ------------  ---------------      ----- ------------  ---------------
    38      1.374382  1 S  dyz               35      0.990074  1 S  dxy        
    36     -0.892305  1 S  dxz               37      0.867880  1 S  dyy        
   174      0.824558  4 O  s                129      0.796526  3 O  px         
    18     -0.761569  1 S  pz                76     -0.765267  2 O  pz         
   240      0.681299  5 O  py               131      0.671506  3 O  pz         

 Vector   37  Occ=0.000000D+00  E= 9.007947D-02
              MO Center=  7.7D-03,  7.9D-02,  6.6D-01, r^2= 1.3D+01
   Bfn.  Coefficient  Atom+Function         Bfn.  Coefficient  Atom+Function  
  ----- ------------  ---------------      ----- ------------  ---------------
   174      4.110508  4 O  s                282     -2.680609  6 H  s          
    18     -2.515667  1 S  pz               186     -1.511886  4 O  pz         
   184      1.400586  4 O  px                64     -1.341956  2 O  s          
    75      1.039630  2 O  py               119     -1.031837  3 O  s          
     6     -0.990629  1 S  s                 34      0.990804  1 S  dxx        

 Vector   38  Occ=0.000000D+00  E= 9.189379D-02
              MO Center= -8.7D-01, -5.5D-01,  2.6D-01, r^2= 1.4D+01
   Bfn.  Coefficient  Atom+Function         Bfn.  Coefficient  Atom+Function  
  ----- ------------  ---------------      ----- ------------  ---------------
     6      5.146360  1 S  s                229      3.139472  5 O  s          
    16      2.866197  1 S  px                18      2.347448  1 S  pz         
   186      1.932997  4 O  pz               239      1.713089  5 O  px         
   119     -1.594096  3 O  s                 17      1.559475  1 S  py         
   174     -1.522602  4 O  s                 64     -1.487121  2 O  s          

 Vector   39  Occ=0.000000D+00  E= 9.569082D-02
              MO Center=  4.9D-01,  1.5D-01, -2.4D-02, r^2= 1.3D+01
   Bfn.  Coefficient  Atom+Function         Bfn.  Coefficient  Atom+Function  
  ----- ------------  ---------------      ----- ------------  ---------------
    17      3.683540  1 S  py               119      2.472835  3 O  s          
    64     -2.433441  2 O  s                 16     -1.922630  1 S  px         
    75      1.457083  2 O  py               129     -1.391313  3 O  px         
    56     -0.989589  1 S  fyyy              51     -0.977138  1 S  fxxy       
    58     -0.903670  1 S  fyzz             130      0.721526  3 O  py         

 Vector   40  Occ=0.000000D+00  E= 1.271668D-01
              MO Center=  3.9D-01,  2.6D-01,  1.3D-01, r^2= 1.6D+01
   Bfn.  Coefficient  Atom+Function         Bfn.  Coefficient  Atom+Function  
  ----- ------------  ---------------      ----- ------------  ---------------
     5      7.069075  1 S  s                 64     -4.461849  2 O  s          
   119     -4.210575  3 O  s                229     -3.171005  5 O  s          
    37      3.021377  1 S  dyy               34      2.757648  1 S  dxx        
    39      2.713502  1 S  dzz                6      2.315298  1 S  s          
    75      2.283872  2 O  py               129      2.020414  3 O  px         

 Vector   41  Occ=0.000000D+00  E= 1.442423D-01
              MO Center= -4.4D-01, -3.5D-01,  5.9D-01, r^2= 1.5D+01
   Bfn.  Coefficient  Atom+Function         Bfn.  Coefficient  Atom+Function  
  ----- ------------  ---------------      ----- ------------  ---------------
     6      7.373171  1 S  s                174     -4.921446  4 O  s          
    16     -2.838690  1 S  px               186      2.723006  4 O  pz         
   229     -2.679728  5 O  s                241     -1.971097  5 O  pz         
   283     -1.750445  6 H  s                  5      1.732276  1 S  s          
    17     -1.595908  1 S  py                36     -1.580662  1 S  dxz        

 Vector   42  Occ=0.000000D+00  E= 1.601847D-01
              MO Center= -7.6D-02, -2.1D-01,  5.0D-01, r^2= 1.4D+01
   Bfn.  Coefficient  Atom+Function         Bfn.  Coefficient  Atom+Function  
  ----- ------------  ---------------      ----- ------------  ---------------
   282      5.673854  6 H  s                  6     -4.105385  1 S  s          
   184     -3.141349  4 O  px               174     -2.382487  4 O  s          
   131      2.071966  3 O  pz                21     -2.022732  1 S  pz         
   229      1.654419  5 O  s                 17      1.505689  1 S  py         
   239      1.244076  5 O  px                64     -1.172794  2 O  s          

 Vector   43  Occ=0.000000D+00  E= 1.622639D-01
              MO Center= -1.2D-01,  4.7D-01,  3.1D-01, r^2= 1.4D+01
   Bfn.  Coefficient  Atom+Function         Bfn.  Coefficient  Atom+Function  
  ----- ------------  ---------------      ----- ------------  ---------------
   282     -4.536122  6 H  s                  6      4.233890  1 S  s          
   185      2.305057  4 O  py                76     -2.251984  2 O  pz         
    21      2.169033  1 S  pz               229     -1.875477  5 O  s          
   184      1.430708  4 O  px                18      1.343459  1 S  pz         
    17     -1.120461  1 S  py               174      1.117154  4 O  s          

 Vector   44  Occ=0.000000D+00  E= 1.647600D-01
              MO Center=  1.6D-01, -2.9D-02, -3.2D-01, r^2= 1.3D+01
   Bfn.  Coefficient  Atom+Function         Bfn.  Coefficient  Atom+Function  
  ----- ------------  ---------------      ----- ------------  ---------------
   130      1.852546  3 O  py               282     -1.778340  6 H  s          
    74     -1.768491  2 O  px                 6      1.695103  1 S  s          
   240     -1.403252  5 O  py                21      0.971869  1 S  pz         
   184      0.880138  4 O  px               119      0.720313  3 O  s          
   229     -0.709161  5 O  s                 16     -0.662765  1 S  px         

 Vector   45  Occ=0.000000D+00  E= 1.795771D-01
              MO Center=  5.2D-01,  7.7D-02,  3.2D-01, r^2= 1.2D+01
   Bfn.  Coefficient  Atom+Function         Bfn.  Coefficient  Atom+Function  
  ----- ------------  ---------------      ----- ------------  ---------------
   119      5.437076  3 O  s                 64     -4.781811  2 O  s          
    17      3.763468  1 S  py                16     -3.132555  1 S  px         
   174     -1.709951  4 O  s                 20      1.516530  1 S  py         
   129     -1.505101  3 O  px               291     -1.414164  6 H  py         
    21      1.295385  1 S  pz                51     -1.194177  1 S  fxxy       

 Vector   46  Occ=0.000000D+00  E= 1.868404D-01
              MO Center=  1.1D-02, -1.6D-02, -6.8D-02, r^2= 1.6D+01
   Bfn.  Coefficient  Atom+Function         Bfn.  Coefficient  Atom+Function  
  ----- ------------  ---------------      ----- ------------  ---------------
   174      4.783775  4 O  s                282     -3.569029  6 H  s          
    21     -3.331758  1 S  pz                20      2.767474  1 S  py         
    18     -2.566415  1 S  pz                19      2.247001  1 S  px         
     6      1.935865  1 S  s                  5     -1.861256  1 S  s          
   239     -1.604357  5 O  px               240     -1.578201  5 O  py         

 Vector   47  Occ=0.000000D+00  E= 1.887022D-01
              MO Center= -7.7D-01, -2.1D-01, -8.0D-01, r^2= 1.5D+01
   Bfn.  Coefficient  Atom+Function         Bfn.  Coefficient  Atom+Function  
  ----- ------------  ---------------      ----- ------------  ---------------
    19      5.432489  1 S  px               174     -5.164440  4 O  s          
   282      3.511158  6 H  s                 21      2.971401  1 S  pz         
     5      2.918846  1 S  s                 18      2.911530  1 S  pz         
   184     -2.775434  4 O  px                20      2.098204  1 S  py         
    74     -2.105837  2 O  px               229      2.049396  5 O  s          

 Vector   48  Occ=0.000000D+00  E= 1.903534D-01
              MO Center= -1.4D-01, -2.3D-01,  3.8D-02, r^2= 1.6D+01
   Bfn.  Coefficient  Atom+Function         Bfn.  Coefficient  Atom+Function  
  ----- ------------  ---------------      ----- ------------  ---------------
    20      5.050627  1 S  py                19     -3.046095  1 S  px         
    75     -2.728093  2 O  py               130     -2.428279  3 O  py         
   185     -2.314113  4 O  py               129      2.240968  3 O  px         
   240     -2.107522  5 O  py               239      1.760549  5 O  px         
    16      1.275963  1 S  px               229      1.239947  5 O  s          

 Vector   49  Occ=0.000000D+00  E= 2.170643D-01
              MO Center= -2.1D-01, -1.9D-01,  2.3D-01, r^2= 1.1D+01
   Bfn.  Coefficient  Atom+Function         Bfn.  Coefficient  Atom+Function  
  ----- ------------  ---------------      ----- ------------  ---------------
   229      6.150189  5 O  s                  6     -4.311525  1 S  s          
   119      3.697193  3 O  s                186      3.163318  4 O  pz         
    21     -2.752590  1 S  pz               241      2.126327  5 O  pz         
   174     -2.050737  4 O  s                282     -2.019438  6 H  s          
     5      1.944580  1 S  s                 18      1.942385  1 S  pz         

 Vector   50  Occ=0.000000D+00  E= 2.364923D-01
              MO Center= -1.9D-01, -9.4D-02,  2.6D-01, r^2= 1.4D+01
   Bfn.  Coefficient  Atom+Function         Bfn.  Coefficient  Atom+Function  
  ----- ------------  ---------------      ----- ------------  ---------------
   229      8.865922  5 O  s                 16      6.760620  1 S  px         
   282     -6.406903  6 H  s                 64     -5.436537  2 O  s          
   174      5.379672  4 O  s                119     -5.287777  3 O  s          
   239      3.870219  5 O  px                17      3.662668  1 S  py         
    35     -3.561082  1 S  dxy              129      3.053083  3 O  px         

 Vector   51  Occ=0.000000D+00  E= 2.470579D-01
              MO Center=  2.3D-01,  1.8D-01,  3.8D-01, r^2= 1.1D+01
   Bfn.  Coefficient  Atom+Function         Bfn.  Coefficient  Atom+Function  
  ----- ------------  ---------------      ----- ------------  ---------------
     6     18.694478  1 S  s                 64     -7.687748  2 O  s          
   174     -7.476303  4 O  s                229     -4.700949  5 O  s          
     5     -4.063961  1 S  s                119     -3.103027  3 O  s          
   186      2.812945  4 O  pz               118      2.751471  3 O  s          
    63      2.275789  2 O  s                283     -1.968853  6 H  s          

 Vector   52  Occ=0.000000D+00  E= 2.487936D-01
              MO Center=  2.1D-01,  1.3D-01,  5.1D-01, r^2= 1.0D+01
   Bfn.  Coefficient  Atom+Function         Bfn.  Coefficient  Atom+Function  
  ----- ------------  ---------------      ----- ------------  ---------------
     6     19.818211  1 S  s                174    -12.161394  4 O  s          
   229     -9.115388  5 O  s                282      6.406763  6 H  s          
   119     -5.447709  3 O  s                 64     -3.693226  2 O  s          
   184     -2.805387  4 O  px               183     -1.920808  4 O  pz         
   241     -1.832984  5 O  pz                19      1.814116  1 S  px         

 Vector   53  Occ=0.000000D+00  E= 2.565385D-01
              MO Center=  2.9D-01,  1.9D-01,  1.3D-01, r^2= 1.2D+01
   Bfn.  Coefficient  Atom+Function         Bfn.  Coefficient  Atom+Function  
  ----- ------------  ---------------      ----- ------------  ---------------
    64      9.192906  2 O  s                119     -8.014424  3 O  s          
    17     -5.475638  1 S  py               174     -4.637593  4 O  s          
    75     -3.795337  2 O  py               130     -2.943178  3 O  py         
    16      2.839874  1 S  px               129      2.320838  3 O  px         
    20      2.296939  1 S  py                37     -2.265178  1 S  dyy        

 Vector   54  Occ=0.000000D+00  E= 2.645214D-01
              MO Center=  3.2D-01,  4.9D-02,  1.7D-01, r^2= 1.1D+01
   Bfn.  Coefficient  Atom+Function         Bfn.  Coefficient  Atom+Function  
  ----- ------------  ---------------      ----- ------------  ---------------
   174     12.256889  4 O  s                282     -6.826687  6 H  s          
   119     -6.187641  3 O  s                  6      4.906431  1 S  s          
    39     -4.016465  1 S  dzz              173      3.209554  4 O  s          
   131     -2.705265  3 O  pz                18     -2.637483  1 S  pz         
   186     -2.424898  4 O  pz                21      2.357566  1 S  pz         

 Vector   55  Occ=0.000000D+00  E= 2.776417D-01
              MO Center= -1.4D-01, -4.5D-02,  7.1D-02, r^2= 6.2D+00
   Bfn.  Coefficient  Atom+Function         Bfn.  Coefficient  Atom+Function  
  ----- ------------  ---------------      ----- ------------  ---------------
    38      3.808068  1 S  dyz               36     -2.111687  1 S  dxz        
    64      2.109569  2 O  s                  6     -2.022928  1 S  s          
   174      1.717519  4 O  s                185     -1.337115  4 O  py         
   128      1.048919  3 O  pz               182     -1.012763  4 O  py         
   291      1.013030  6 H  py               282     -0.923429  6 H  s          

 Vector   56  Occ=0.000000D+00  E= 2.894223D-01
              MO Center=  9.1D-01,  3.5D-01,  1.3D+00, r^2= 1.0D+01
   Bfn.  Coefficient  Atom+Function         Bfn.  Coefficient  Atom+Function  
  ----- ------------  ---------------      ----- ------------  ---------------
     6     13.507957  1 S  s                174    -10.146490  4 O  s          
   119     -9.267839  3 O  s                 64     -9.181049  2 O  s          
   282      7.691214  6 H  s                  5      4.984833  1 S  s          
   229     -3.880461  5 O  s                290     -3.822976  6 H  px         
   173     -3.082010  4 O  s                 37      3.045980  1 S  dyy        

 Vector   57  Occ=0.000000D+00  E= 3.232397D-01
              MO Center= -3.5D-01, -1.5D-01, -2.1D-01, r^2= 1.2D+01
   Bfn.  Coefficient  Atom+Function         Bfn.  Coefficient  Atom+Function  
  ----- ------------  ---------------      ----- ------------  ---------------
   229     13.665526  5 O  s                  5    -10.398860  1 S  s          
    64      9.498013  2 O  s                119      9.190483  3 O  s          
    34     -8.436544  1 S  dxx               37     -7.963873  1 S  dyy        
    39     -6.543757  1 S  dzz                6     -4.906387  1 S  s          
   282      4.432293  6 H  s                239      3.360040  5 O  px         

 Vector   58  Occ=0.000000D+00  E= 3.253944D-01
              MO Center=  2.4D-01,  1.1D-01,  3.1D-01, r^2= 1.0D+01
   Bfn.  Coefficient  Atom+Function         Bfn.  Coefficient  Atom+Function  
  ----- ------------  ---------------      ----- ------------  ---------------
   282      8.224984  6 H  s                119      6.819804  3 O  s          
    64      6.697626  2 O  s                  6     -5.971414  1 S  s          
   174     -5.583732  4 O  s                 16     -5.116853  1 S  px         
    17     -3.419485  1 S  py               184     -3.431055  4 O  px         
    34     -2.895842  1 S  dxx               35     -2.538192  1 S  dxy        

 Vector   59  Occ=0.000000D+00  E= 3.360132D-01
              MO Center= -7.5D-02, -2.0D-01,  1.5D-01, r^2= 9.7D+00
   Bfn.  Coefficient  Atom+Function         Bfn.  Coefficient  Atom+Function  
  ----- ------------  ---------------      ----- ------------  ---------------
   119      4.537693  3 O  s                 16     -4.094804  1 S  px         
    17      4.056130  1 S  py                35     -3.353856  1 S  dxy        
    37     -2.898046  1 S  dyy               63      2.556468  2 O  s          
   118     -2.530925  3 O  s                 56     -2.228085  1 S  fyyy       
    51     -2.133086  1 S  fxxy              50      1.926557  1 S  fxxx       

 Vector   60  Occ=0.000000D+00  E= 3.438717D-01
              MO Center=  4.6D-01,  2.2D-01,  1.2D+00, r^2= 9.7D+00
   Bfn.  Coefficient  Atom+Function         Bfn.  Coefficient  Atom+Function  
  ----- ------------  ---------------      ----- ------------  ---------------
   174      7.413802  4 O  s                 35      6.349028  1 S  dxy        
   119      5.923828  3 O  s                229     -5.435469  5 O  s          
     6     -5.121719  1 S  s                186     -4.823567  4 O  pz         
    36      4.735021  1 S  dxz               64      4.371893  2 O  s          
   292      3.343626  6 H  pz               228     -3.043549  5 O  s          

 Vector   61  Occ=0.000000D+00  E= 3.870564D-01
              MO Center= -1.2D-01, -2.3D-02,  5.7D-02, r^2= 8.4D+00
   Bfn.  Coefficient  Atom+Function         Bfn.  Coefficient  Atom+Function  
  ----- ------------  ---------------      ----- ------------  ---------------
    16      8.628436  1 S  px               282      8.232011  6 H  s          
   229      6.933600  5 O  s                 36     -4.997075  1 S  dxz        
    17      4.079850  1 S  py               174     -3.714767  4 O  s          
     6     -3.693591  1 S  s                 55     -2.602725  1 S  fxzz       
    53     -2.064141  1 S  fxyy             119     -1.994803  3 O  s          

 Vector   62  Occ=0.000000D+00  E= 3.897492D-01
              MO Center= -5.6D-02,  8.4D-02, -3.5D-02, r^2= 8.1D+00
   Bfn.  Coefficient  Atom+Function         Bfn.  Coefficient  Atom+Function  
  ----- ------------  ---------------      ----- ------------  ---------------
    17     10.083869  1 S  py               282      5.870814  6 H  s          
   229      5.154975  5 O  s                 64     -5.071989  2 O  s          
    38     -4.980640  1 S  dyz              119      3.240175  3 O  s          
     6     -3.205908  1 S  s                174     -3.133018  4 O  s          
    16      3.093628  1 S  px                58     -2.945944  1 S  fyzz       

 Vector   63  Occ=0.000000D+00  E= 4.004371D-01
              MO Center=  2.7D-01,  6.1D-01,  3.8D-01, r^2= 8.3D+00
   Bfn.  Coefficient  Atom+Function         Bfn.  Coefficient  Atom+Function  
  ----- ------------  ---------------      ----- ------------  ---------------
    17     15.080022  1 S  py                64     -8.830439  2 O  s          
   119      7.250076  3 O  s                 16     -5.921552  1 S  px         
    37      4.413590  1 S  dyy               18      3.914838  1 S  pz         
    34     -3.927303  1 S  dxx               35      3.625329  1 S  dxy        
    51     -3.423370  1 S  fxxy              56     -3.187474  1 S  fyyy       

 Vector   64  Occ=0.000000D+00  E= 4.068574D-01
              MO Center=  1.2D-01, -1.5D-01,  7.4D-01, r^2= 8.8D+00
   Bfn.  Coefficient  Atom+Function         Bfn.  Coefficient  Atom+Function  
  ----- ------------  ---------------      ----- ------------  ---------------
     6     10.163177  1 S  s                 18      9.470302  1 S  pz         
   282     -8.205200  6 H  s                 16     -6.413883  1 S  px         
   174     -5.734027  4 O  s                229     -5.419425  5 O  s          
    35      4.516177  1 S  dxy               39      3.396563  1 S  dzz        
   281      2.914011  6 H  s                 64     -2.591443  2 O  s          

 Vector   65  Occ=0.000000D+00  E= 4.155925D-01
              MO Center=  3.1D-01, -2.6D-01,  6.2D-01, r^2= 8.9D+00
   Bfn.  Coefficient  Atom+Function         Bfn.  Coefficient  Atom+Function  
  ----- ------------  ---------------      ----- ------------  ---------------
    18     16.396313  1 S  pz                16     10.843116  1 S  px         
   174     -7.164862  4 O  s                 39      6.276583  1 S  dzz        
   119     -5.084359  3 O  s                  6      4.897894  1 S  s          
   282     -4.689059  6 H  s                 36      4.646659  1 S  dxz        
   292      3.993632  6 H  pz                52     -3.327846  1 S  fxxz       

 Vector   66  Occ=0.000000D+00  E= 4.784056D-01
              MO Center= -4.1D-01, -2.4D-01,  1.1D+00, r^2= 8.4D+00
   Bfn.  Coefficient  Atom+Function         Bfn.  Coefficient  Atom+Function  
  ----- ------------  ---------------      ----- ------------  ---------------
   282     24.766668  6 H  s                174    -20.221286  4 O  s          
    16    -11.152237  1 S  px                 5      9.892506  1 S  s          
    35      5.979445  1 S  dxy               17     -5.715326  1 S  py         
   229     -5.669702  5 O  s                281     -5.436060  6 H  s          
    18      5.305626  1 S  pz                 6      5.232500  1 S  s          

 Vector   67  Occ=0.000000D+00  E= 5.178446D-01
              MO Center=  9.3D-02,  8.8D-02, -4.0D-02, r^2= 5.9D+00
   Bfn.  Coefficient  Atom+Function         Bfn.  Coefficient  Atom+Function  
  ----- ------------  ---------------      ----- ------------  ---------------
     5      7.098415  1 S  s                282     -6.660200  6 H  s          
   229      4.396194  5 O  s                 63     -4.357096  2 O  s          
    39     -4.185139  1 S  dzz              174      3.416627  4 O  s          
    59     -3.383454  1 S  fzzz              52     -3.239673  1 S  fxxz       
   173      3.089263  4 O  s                 18      3.036187  1 S  pz         

 Vector   68  Occ=0.000000D+00  E= 5.451105D-01
              MO Center=  2.3D-01,  6.4D-02,  6.6D-01, r^2= 6.3D+00
   Bfn.  Coefficient  Atom+Function         Bfn.  Coefficient  Atom+Function  
  ----- ------------  ---------------      ----- ------------  ---------------
   118      4.458300  3 O  s                 35      4.416893  1 S  dxy        
   282      3.823963  6 H  s                174     -3.172770  4 O  s          
    16     -2.977107  1 S  px               126     -2.283531  3 O  px         
    63     -2.167341  2 O  s                144      1.928860  3 O  dxx        
   200     -1.836380  4 O  dxy               37      1.722493  1 S  dyy        

 Vector   69  Occ=0.000000D+00  E= 5.543276D-01
              MO Center=  2.1D-01,  1.4D-01,  1.5D-01, r^2= 5.7D+00
   Bfn.  Coefficient  Atom+Function         Bfn.  Coefficient  Atom+Function  
  ----- ------------  ---------------      ----- ------------  ---------------
    53      2.596432  1 S  fxyy              35      2.424693  1 S  dxy        
    16     -2.179324  1 S  px               174     -2.173993  4 O  s          
   281      1.984888  6 H  s                173     -1.939603  4 O  s          
   118      1.915004  3 O  s                  5     -1.829609  1 S  s          
   229     -1.584923  5 O  s                 91     -1.451313  2 O  dxz        

 Vector   70  Occ=0.000000D+00  E= 5.698456D-01
              MO Center=  1.3D-01,  1.9D-01,  3.8D-02, r^2= 7.3D+00
   Bfn.  Coefficient  Atom+Function         Bfn.  Coefficient  Atom+Function  
  ----- ------------  ---------------      ----- ------------  ---------------
     5      7.555816  1 S  s                 63     -5.393609  2 O  s          
   282      5.056636  6 H  s                 34     -4.467807  1 S  dxx        
   281     -3.490635  6 H  s                 72      3.191124  2 O  py         
    18     -2.703943  1 S  pz                39     -2.433725  1 S  dzz        
   229      2.411152  5 O  s                 92     -2.278335  2 O  dyy        

 Vector   71  Occ=0.000000D+00  E= 5.720540D-01
              MO Center=  3.0D-01,  1.5D-01, -1.9D-01, r^2= 6.4D+00
   Bfn.  Coefficient  Atom+Function         Bfn.  Coefficient  Atom+Function  
  ----- ------------  ---------------      ----- ------------  ---------------
    35      3.716762  1 S  dxy              282     -3.472365  6 H  s          
   118      2.675324  3 O  s                 36      2.220018  1 S  dxz        
    54     -2.106997  1 S  fxyz             119      1.845359  3 O  s          
     5     -1.768276  1 S  s                 23      1.719901  1 S  dxy        
    19      1.703710  1 S  px                74     -1.621396  2 O  px         

 Vector   72  Occ=0.000000D+00  E= 5.834708D-01
              MO Center=  6.3D-03, -4.3D-01,  2.2D-01, r^2= 7.2D+00
   Bfn.  Coefficient  Atom+Function         Bfn.  Coefficient  Atom+Function  
  ----- ------------  ---------------      ----- ------------  ---------------
   174      5.059025  4 O  s                282     -5.055754  6 H  s          
     6     -4.260547  1 S  s                229      2.988131  5 O  s          
   281      2.057117  6 H  s                 54      1.893016  1 S  fxyz       
    51     -1.802529  1 S  fxxy              35     -1.756131  1 S  dxy        
    19     -1.728837  1 S  px               239      1.598557  5 O  px         

 Vector   73  Occ=0.000000D+00  E= 5.891520D-01
              MO Center= -1.9D-01,  1.6D-01, -4.3D-01, r^2= 8.2D+00
   Bfn.  Coefficient  Atom+Function         Bfn.  Coefficient  Atom+Function  
  ----- ------------  ---------------      ----- ------------  ---------------
    53      1.926382  1 S  fxyy              90      1.564192  2 O  dxy        
    74     -1.439464  2 O  px               174     -1.409008  4 O  s          
   240     -1.265624  5 O  py                 6      1.207576  1 S  s          
   282      1.023333  6 H  s                  5     -1.017209  1 S  s          
   130      0.989748  3 O  py               127     -0.847588  3 O  py         

 Vector   74  Occ=0.000000D+00  E= 5.924588D-01
              MO Center=  4.4D-01,  8.3D-03, -6.4D-01, r^2= 6.3D+00
   Bfn.  Coefficient  Atom+Function         Bfn.  Coefficient  Atom+Function  
  ----- ------------  ---------------      ----- ------------  ---------------
   119      3.341154  3 O  s                  5      3.024955  1 S  s          
   174      2.427861  4 O  s                  6     -2.173264  1 S  s          
   228     -1.787177  5 O  s                 16     -1.716862  1 S  px         
    17      1.476378  1 S  py                73     -1.322376  2 O  pz         
   282     -1.252637  6 H  s                128      1.241530  3 O  pz         

 Vector   75  Occ=0.000000D+00  E= 5.989917D-01
              MO Center= -2.7D-01, -3.9D-02,  4.0D-01, r^2= 7.9D+00
   Bfn.  Coefficient  Atom+Function         Bfn.  Coefficient  Atom+Function  
  ----- ------------  ---------------      ----- ------------  ---------------
     5     22.350697  1 S  s                228     -7.194663  5 O  s          
    64      6.656075  2 O  s                118     -6.133045  3 O  s          
    63     -5.948952  2 O  s                 39     -5.889140  1 S  dzz        
   174      5.827444  4 O  s                 72      4.901443  2 O  py         
   119      4.895064  3 O  s                236     -4.876927  5 O  px         

 Vector   76  Occ=0.000000D+00  E= 6.050844D-01
              MO Center= -2.4D-01, -1.5D-01,  1.3D+00, r^2= 5.9D+00
   Bfn.  Coefficient  Atom+Function         Bfn.  Coefficient  Atom+Function  
  ----- ------------  ---------------      ----- ------------  ---------------
   118      2.178507  3 O  s                 63     -1.978189  2 O  s          
    51      1.908553  1 S  fxxy             185      1.826138  4 O  py         
    56      1.816092  1 S  fyyy              20     -1.763848  1 S  py         
   182     -1.571775  4 O  py                17     -1.347067  1 S  py         
    72      1.204250  2 O  py                34     -1.148662  1 S  dxx        

 Vector   77  Occ=0.000000D+00  E= 6.255856D-01
              MO Center= -1.2D-02, -1.4D-02,  7.9D-01, r^2= 7.7D+00
   Bfn.  Coefficient  Atom+Function         Bfn.  Coefficient  Atom+Function  
  ----- ------------  ---------------      ----- ------------  ---------------
   174     11.652171  4 O  s                282    -11.172626  6 H  s          
     5      9.497512  1 S  s                 16      6.506758  1 S  px         
     6     -4.227408  1 S  s                118     -3.855967  3 O  s          
    63     -3.654951  2 O  s                229      2.554631  5 O  s          
    17      2.282770  1 S  py                72      2.283453  2 O  py         

 Vector   78  Occ=0.000000D+00  E= 6.335111D-01
              MO Center= -6.0D-01, -2.9D-01, -2.3D-01, r^2= 8.3D+00
   Bfn.  Coefficient  Atom+Function         Bfn.  Coefficient  Atom+Function  
  ----- ------------  ---------------      ----- ------------  ---------------
   229      9.924379  5 O  s                  5      9.437126  1 S  s          
    16      4.706849  1 S  px               228     -4.122401  5 O  s          
    17      3.251287  1 S  py               254     -3.090599  5 O  dxx        
   236     -2.742838  5 O  px                53     -2.314665  1 S  fxyy       
    50     -2.301005  1 S  fxxx             174     -2.207604  4 O  s          

 Vector   79  Occ=0.000000D+00  E= 6.537589D-01
              MO Center= -5.0D-01, -1.8D-01, -9.4D-01, r^2= 7.7D+00
   Bfn.  Coefficient  Atom+Function         Bfn.  Coefficient  Atom+Function  
  ----- ------------  ---------------      ----- ------------  ---------------
   229      5.524232  5 O  s                  5      3.716047  1 S  s          
   174      3.678447  4 O  s                 17      3.251263  1 S  py         
    21      2.953965  1 S  pz                51     -2.934263  1 S  fxxy       
    64     -2.541472  2 O  s                183      2.371155  4 O  pz         
    76     -1.907068  2 O  pz                16      1.894432  1 S  px         

 Vector   80  Occ=0.000000D+00  E= 6.558973D-01
              MO Center=  4.9D-01,  2.4D-01, -2.9D-01, r^2= 9.5D+00
   Bfn.  Coefficient  Atom+Function         Bfn.  Coefficient  Atom+Function  
  ----- ------------  ---------------      ----- ------------  ---------------
   119     -8.631701  3 O  s                 64      8.387550  2 O  s          
    17     -6.416824  1 S  py                16      4.856060  1 S  px         
    20     -1.821582  1 S  py                53     -1.558904  1 S  fxyy       
    37     -1.546949  1 S  dyy               35     -1.535482  1 S  dxy        
    92     -1.535525  2 O  dyy              229      1.535564  5 O  s          

 Vector   81  Occ=0.000000D+00  E= 6.749580D-01
              MO Center=  2.7D-01,  1.6D-01,  3.1D-01, r^2= 8.4D+00
   Bfn.  Coefficient  Atom+Function         Bfn.  Coefficient  Atom+Function  
  ----- ------------  ---------------      ----- ------------  ---------------
     5     13.085841  1 S  s                 64      8.447651  2 O  s          
   119      7.569307  3 O  s                  6     -7.046425  1 S  s          
   183      4.953504  4 O  pz               118     -4.899699  3 O  s          
    63     -4.099998  2 O  s                173     -3.562977  4 O  s          
   174     -3.005059  4 O  s                 92     -2.498577  2 O  dyy        

 Vector   82  Occ=0.000000D+00  E= 6.876992D-01
              MO Center= -2.5D-01, -1.5D-01,  6.0D-01, r^2= 7.2D+00
   Bfn.  Coefficient  Atom+Function         Bfn.  Coefficient  Atom+Function  
  ----- ------------  ---------------      ----- ------------  ---------------
    63      3.942813  2 O  s                118     -3.417857  3 O  s          
    56     -2.952208  1 S  fyyy              64     -2.913425  2 O  s          
    58     -2.880809  1 S  fyzz              51     -2.846279  1 S  fxxy       
    72     -2.820231  2 O  py               126      2.307612  3 O  px         
    35     -2.160561  1 S  dxy               92      1.990448  2 O  dyy        

 Vector   83  Occ=0.000000D+00  E= 7.013489D-01
              MO Center= -1.7D-02, -4.1D-02,  5.3D-01, r^2= 7.4D+00
   Bfn.  Coefficient  Atom+Function         Bfn.  Coefficient  Atom+Function  
  ----- ------------  ---------------      ----- ------------  ---------------
     6    -13.713461  1 S  s                  5     12.774977  1 S  s          
   173     -7.558852  4 O  s                282      5.756841  6 H  s          
   118     -4.600647  3 O  s                 63     -4.350794  2 O  s          
   228     -4.365441  5 O  s                119      4.215516  3 O  s          
    51     -3.994330  1 S  fxxy             183      3.943765  4 O  pz         

 Vector   84  Occ=0.000000D+00  E= 7.141654D-01
              MO Center= -1.7D-02,  2.3D-01, -3.0D-02, r^2= 7.1D+00
   Bfn.  Coefficient  Atom+Function         Bfn.  Coefficient  Atom+Function  
  ----- ------------  ---------------      ----- ------------  ---------------
   282      6.457344  6 H  s                174     -5.824159  4 O  s          
    35     -5.059013  1 S  dxy               38     -3.806789  1 S  dyz        
   229      3.210410  5 O  s                228      2.909396  5 O  s          
   236      2.202008  5 O  px               281     -2.164135  6 H  s          
   292     -2.031062  6 H  pz                53      1.939501  1 S  fxyy       

 Vector   85  Occ=0.000000D+00  E= 7.183937D-01
              MO Center=  2.5D-01, -1.9D-01, -1.7D-02, r^2= 7.0D+00
   Bfn.  Coefficient  Atom+Function         Bfn.  Coefficient  Atom+Function  
  ----- ------------  ---------------      ----- ------------  ---------------
   282      7.411013  6 H  s                174     -6.644144  4 O  s          
    36     -5.032379  1 S  dxz              119     -4.641668  3 O  s          
     5     -4.104430  1 S  s                 37      3.820768  1 S  dyy        
   228      3.251257  5 O  s                 35     -2.750384  1 S  dxy        
   292     -2.390257  6 H  pz                64     -2.082334  2 O  s          

 Vector   86  Occ=0.000000D+00  E= 7.404047D-01
              MO Center=  1.7D-01,  1.3D-01,  5.4D-01, r^2= 7.6D+00
   Bfn.  Coefficient  Atom+Function         Bfn.  Coefficient  Atom+Function  
  ----- ------------  ---------------      ----- ------------  ---------------
     5     18.971604  1 S  s                  6    -16.762693  1 S  s          
   229     11.252740  5 O  s                 64      7.876614  2 O  s          
   119      7.180956  3 O  s                174      7.179706  4 O  s          
   228     -5.499020  5 O  s                183      5.308032  4 O  pz         
    63     -5.241622  2 O  s                 18      5.190933  1 S  pz         

 Vector   87  Occ=0.000000D+00  E= 7.449514D-01
              MO Center=  2.5D-01,  4.3D-02,  2.7D-01, r^2= 7.9D+00
   Bfn.  Coefficient  Atom+Function         Bfn.  Coefficient  Atom+Function  
  ----- ------------  ---------------      ----- ------------  ---------------
     6      8.426790  1 S  s                119     -8.334808  3 O  s          
    64     -7.463850  2 O  s                 16      5.091307  1 S  px         
     5     -4.466857  1 S  s                 36     -3.808012  1 S  dxz        
    55     -3.287451  1 S  fxzz             229      3.283790  5 O  s          
    17      2.863494  1 S  py               173      2.759470  4 O  s          

 Vector   88  Occ=0.000000D+00  E= 7.632374D-01
              MO Center=  2.2D-01, -2.7D-01,  1.7D-01, r^2= 6.4D+00
   Bfn.  Coefficient  Atom+Function         Bfn.  Coefficient  Atom+Function  
  ----- ------------  ---------------      ----- ------------  ---------------
   119      9.166784  3 O  s                 64      6.322844  2 O  s          
   229      6.335181  5 O  s                 37     -6.286766  1 S  dyy        
     6     -4.966923  1 S  s                 34     -4.677033  1 S  dxx        
   282     -4.513230  6 H  s                 18      3.327332  1 S  pz         
    54      3.115804  1 S  fxyz              16     -2.954751  1 S  px         

 Vector   89  Occ=0.000000D+00  E= 7.672963D-01
              MO Center= -3.8D-02,  3.4D-01,  1.4D-01, r^2= 6.3D+00
   Bfn.  Coefficient  Atom+Function         Bfn.  Coefficient  Atom+Function  
  ----- ------------  ---------------      ----- ------------  ---------------
    64      7.159963  2 O  s                229      7.051605  5 O  s          
    34     -5.646414  1 S  dxx               37     -3.245209  1 S  dyy        
    18      3.058825  1 S  pz               282     -2.964705  6 H  s          
     5     -2.926750  1 S  s                 17     -2.862904  1 S  py         
   119      2.729047  3 O  s                  6     -2.676042  1 S  s          

 Vector   90  Occ=0.000000D+00  E= 7.952594D-01
              MO Center=  3.8D-01,  2.3D-01,  5.1D-01, r^2= 7.1D+00
   Bfn.  Coefficient  Atom+Function         Bfn.  Coefficient  Atom+Function  
  ----- ------------  ---------------      ----- ------------  ---------------
     5      7.056778  1 S  s                229     -6.909059  5 O  s          
    34      6.141565  1 S  dxx               37      6.133425  1 S  dyy        
   281     -5.293740  6 H  s                173      4.872790  4 O  s          
    64     -4.561686  2 O  s                 39      4.509224  1 S  dzz        
   119     -3.712352  3 O  s                183      2.818940  4 O  pz         

 Vector   91  Occ=0.000000D+00  E= 8.074003D-01
              MO Center=  5.0D-01,  8.1D-02,  4.7D-01, r^2= 6.7D+00
   Bfn.  Coefficient  Atom+Function         Bfn.  Coefficient  Atom+Function  
  ----- ------------  ---------------      ----- ------------  ---------------
     5     10.002960  1 S  s                  6      9.037548  1 S  s          
   119     -9.065951  3 O  s                 64     -7.407504  2 O  s          
   229     -7.206312  5 O  s                 34      5.204334  1 S  dxx        
    37      4.464515  1 S  dyy              173     -4.380881  4 O  s          
   118     -3.340963  3 O  s                 18     -3.261292  1 S  pz         

 Vector   92  Occ=0.000000D+00  E= 8.254831D-01
              MO Center=  5.1D-01,  3.7D-01,  1.2D+00, r^2= 5.9D+00
[...]
     5     22.301421  1 S  s                180     11.301235  4 O  pz         
   183     11.126842  4 O  pz               178     10.224015  4 O  px         
   181      7.623829  4 O  px               214     -6.099820  4 O  fzzz       
   212     -6.037121  4 O  fyyz             207     -5.938726  4 O  fxxz       
   205     -5.505493  4 O  fxxx             208     -5.472691  4 O  fxyy       

 Vector  296  Occ=0.000000D+00  E= 1.573938D+01
              MO Center= -7.2D-02, -7.0D-02,  5.9D-01, r^2= 3.7D+00
   Bfn.  Coefficient  Atom+Function         Bfn.  Coefficient  Atom+Function  
  ----- ------------  ---------------      ----- ------------  ---------------
     5     15.830169  1 S  s                171     -9.876869  4 O  s          
    12     -9.410432  1 S  pz               233     -6.675166  5 O  px         
   236     -6.684784  5 O  px               178     -6.546644  4 O  px         
    27     -5.870319  1 S  dzz              170     -5.078609  4 O  s          
    69      4.917378  2 O  py                10     -4.719772  1 S  px         

 Vector  297  Occ=0.000000D+00  E= 1.624215D+01
              MO Center=  7.0D-01,  2.9D-01, -3.9D-01, r^2= 2.6D+00
   Bfn.  Coefficient  Atom+Function         Bfn.  Coefficient  Atom+Function  
  ----- ------------  ---------------      ----- ------------  ---------------
    72     11.492956  2 O  py               126    -11.067534  3 O  px         
    69      8.269472  2 O  py               118      7.710462  3 O  s          
   123     -7.584523  3 O  px                63     -7.173315  2 O  s          
   116      6.772903  3 O  s                 61     -6.159414  2 O  s          
    17      5.867206  1 S  py               127      5.228296  3 O  py         

 Vector  298  Occ=0.000000D+00  E= 1.630427D+01
              MO Center= -7.2D-01, -2.9D-01, -3.9D-01, r^2= 2.6D+00
   Bfn.  Coefficient  Atom+Function         Bfn.  Coefficient  Atom+Function  
  ----- ------------  ---------------      ----- ------------  ---------------
   236     12.272042  5 O  px               228     10.210103  5 O  s          
   233      7.878900  5 O  px               226      7.799294  5 O  s          
   237      6.854485  5 O  py                16      6.677079  1 S  px         
    72      6.234995  2 O  py                69      4.720659  2 O  py         
   275     -4.616262  5 O  fxzz             234      4.463444  5 O  py         

 Vector  299  Occ=0.000000D+00  E= 1.650463D+01
              MO Center=  4.6D-02,  3.6D-02,  7.5D-01, r^2= 3.2D+00
   Bfn.  Coefficient  Atom+Function         Bfn.  Coefficient  Atom+Function  
  ----- ------------  ---------------      ----- ------------  ---------------
     5     21.508078  1 S  s                171     11.348271  4 O  s          
    72      9.334991  2 O  py               126      7.996550  3 O  px         
    63     -7.599503  2 O  s                118     -7.102899  3 O  s          
   236     -5.679777  5 O  px               170      5.177935  4 O  s          
    18     -5.132415  1 S  pz               127     -5.120966  3 O  py         

 Vector  300  Occ=0.000000D+00  E= 1.685444D+01
              MO Center= -2.0D-02, -1.3D-02,  1.3D+00, r^2= 1.4D+00
   Bfn.  Coefficient  Atom+Function         Bfn.  Coefficient  Atom+Function  
  ----- ------------  ---------------      ----- ------------  ---------------
   173     13.772711  4 O  s                  5     -9.630496  1 S  s          
    63      5.170814  2 O  s                236      4.973453  5 O  px         
   196     -4.883784  4 O  dyy              180      4.856789  4 O  pz         
   193     -4.840119  4 O  dxx              198     -4.476319  4 O  dzz        
   118      4.448726  3 O  s                199     -4.391812  4 O  dxx        

 Vector  301  Occ=0.000000D+00  E= 1.703727D+01
              MO Center=  2.9D-01, -1.2D-01, -3.0D-01, r^2= 2.6D+00
   Bfn.  Coefficient  Atom+Function         Bfn.  Coefficient  Atom+Function  
  ----- ------------  ---------------      ----- ------------  ---------------
     5     10.800745  1 S  s                126      9.627738  3 O  px         
    72     -8.762094  2 O  py                17     -8.485592  1 S  py         
   236     -6.711693  5 O  px                69     -6.549974  2 O  py         
   123      6.222620  3 O  px               144     -5.877182  3 O  dxx        
   118      4.913573  3 O  s                 92      4.774819  2 O  dyy        

 Vector  302  Occ=0.000000D+00  E= 1.708498D+01
              MO Center= -6.8D-01, -1.2D-01, -2.6D-01, r^2= 2.3D+00
   Bfn.  Coefficient  Atom+Function         Bfn.  Coefficient  Atom+Function  
  ----- ------------  ---------------      ----- ------------  ---------------
     5     20.489584  1 S  s                236    -10.696400  5 O  px         
    16     -8.704449  1 S  px                72      8.702621  2 O  py         
   233     -7.116739  5 O  px               254     -6.715336  5 O  dxx        
   237     -6.555079  5 O  py               228      6.365968  5 O  s          
   257     -5.869935  5 O  dyy              259     -5.286545  5 O  dzz        

 Vector  303  Occ=0.000000D+00  E= 1.727201D+01
              MO Center=  4.0D-01,  2.2D-01, -1.7D-01, r^2= 2.8D+00
   Bfn.  Coefficient  Atom+Function         Bfn.  Coefficient  Atom+Function  
  ----- ------------  ---------------      ----- ------------  ---------------
     5     22.863497  1 S  s                 72     13.623656  2 O  py         
   126     11.102506  3 O  px                16      9.865147  1 S  px         
   127     -8.005978  3 O  py                92     -7.669624  2 O  dyy        
    69      7.223737  2 O  py                 6     -6.706190  1 S  s          
   144     -6.717463  3 O  dxx              123      6.282426  3 O  px         

 Vector  304  Occ=0.000000D+00  E= 3.212674D+01
              MO Center=  3.0D-03, -1.8D-03,  9.5D-02, r^2= 3.2D+00
   Bfn.  Coefficient  Atom+Function         Bfn.  Coefficient  Atom+Function  
  ----- ------------  ---------------      ----- ------------  ---------------
     5    164.539460  1 S  s                  3    -62.095966  1 S  s          
     2    -43.222573  1 S  s                118    -39.992409  3 O  s          
    63    -38.924370  2 O  s                228    -36.935757  5 O  s          
   183     36.341838  4 O  pz               173    -31.870198  4 O  s          
    72     26.721631  2 O  py               126     23.620098  3 O  px         


   alpha - beta orbital overlaps 
   ----------------------------- 


   alpha      1      2      3      4      5      6      7      8      9     10
    beta      1      2      3      4      5      6      7      8      9     10
 overlap   1.000  1.000  1.000  1.000  1.000  1.000  1.000  1.000  0.999  0.999


   alpha     11     12     13     14     15     16     17     18     19     20
    beta     11     12     13     14     15     17     16     18     20     19
 overlap   0.892  0.895  0.996  0.998  0.997  0.905  0.901  0.990  0.983  0.790


   alpha     21     22     23     24     25     26     27     28     29     30
    beta     21     22     25     23     24     26     27     28     29     30
 overlap   0.788  0.992  0.995  0.994  0.992  0.998  0.996  0.996  0.881  0.890


   alpha     31     32     33     34     35     36     37     38     39     40
    beta     31     32     33     34     35     36     37     38     39     40
 overlap   0.993  0.958  0.834  0.849  0.992  0.990  0.914  0.912  0.987  1.000


   alpha     41     42     43     44     45     46     47     48     49     50
    beta     41     42     43     44     45     46     47     48     49     50
 overlap   1.000  0.996  0.998  0.996  0.997  0.996  0.994  0.996  1.000  1.000


   alpha     51     52     53     54     55     56     57     58     59     60
    beta     51     52     53     54     55     56     57     58     59     60
 overlap   0.922  0.923  0.998  0.996  0.999  1.000  0.994  0.992  0.999  0.998


   alpha     61     62     63     64     65     66     67     68     69     70
    beta     61     62     63     64     65     66     67     68     69     70
 overlap   0.999  0.999  1.000  1.000  1.000  1.000  1.000  0.999  0.998  0.947


   alpha     71     72     73     74     75     76     77     78     79     80
    beta     71     72     74     73     75     76     77     78     79     80
 overlap   0.952  0.988  0.910  0.950  0.962  0.996  0.996  0.998  0.994  0.993


   alpha     81     82     83     84     85     86     87     88     89     90
    beta     81     82     83     84     85     86     87     88     89     90
 overlap   0.999  0.997  0.999  0.962  0.962  0.993  0.990  0.964  0.965  0.997


   alpha     91     92     93     94     95     96     97     98     99    100
    beta     91     92     93     94     95     96     97     98     99    100
 overlap   0.999  0.999  0.999  0.999  0.999  0.995  0.996  1.000  0.999  0.999


   alpha    101    102    103    104    105    106    107    108    109    110
    beta    101    102    103    104    105    106    107    108    109    110
 overlap   0.934  0.937  0.973  0.998  0.997  0.999  1.000  0.999  1.000  1.000


   alpha    111    112    113    114    115    116    117    118    119    120
    beta    111    112    113    114    115    116    117    118    119    120
 overlap   1.000  1.000  0.999  0.999  1.000  1.000  1.000  1.000  1.000  1.000


   alpha    121    122    123    124    125    126    127    128    129    130
    beta    121    122    123    124    125    126    127    128    129    130
 overlap   1.000  1.000  1.000  1.000  1.000  0.996  0.969  0.968  0.997  0.960


   alpha    131    132    133    134    135    136    137    138    139    140
    beta    131    135    133    135    134    136    137    138    139    140
 overlap   0.930  0.688  0.818  0.674  0.933  0.954  0.966  0.989  0.985  0.978


   alpha    141    142    143    144    145    146    147    148    149    150
    beta    141    142    143    144    145    146    147    148    149    150
 overlap   0.985  0.977  0.976  0.998  0.912  0.899  0.959  0.998  0.996  0.997


   alpha    151    152    153    154    155    156    157    158    159    160
    beta    151    152    153    154    155    156    157    158    159    160
 overlap   0.988  0.988  0.962  0.959  0.981  0.982  0.994  0.966  0.960  0.979


   alpha    161    162    163    164    165    166    167    168    169    170
    beta    161    162    163    164    165    166    167    168    169    170
 overlap   0.991  0.995  0.998  0.994  0.995  0.998  0.998  0.991  0.991  0.998


   alpha    171    172    173    174    175    176    177    178    179    180
    beta    171    172    173    174    175    176    177    178    179    180
 overlap   0.998  0.991  0.991  0.998  0.997  0.998  0.996  0.998  1.000  1.000


   alpha    181    182    183    184    185    186    187    188    189    190
    beta    181    182    183    184    185    186    187    188    189    190
 overlap   0.999  0.997  0.995  0.996  0.992  0.999  0.999  1.000  0.999  0.999


   alpha    191    192    193    194    195    196    197    198    199    200
    beta    191    192    193    194    195    196    197    198    199    201
 overlap   0.997  0.994  0.983  0.988  0.964  0.964  1.000  1.000  0.999  0.751


   alpha    201    202    203    204    205    206    207    208    209    210
    beta    200    202    203    204    205    206    207    208    209    210
 overlap   0.753  1.000  1.000  1.000  1.000  1.000  1.000  1.000  1.000  1.000


   alpha    211    212    213    214    215    216    217    218    219    220
    beta    211    212    213    214    215    216    217    219    218    220
 overlap   1.000  1.000  1.000  0.999  0.998  0.998  0.999  0.688  0.817  0.840


   alpha    221    222    223    224    225    226    227    228    229    230
    beta    221    222    223    224    225    226    227    228    229    230
 overlap   0.937  0.935  0.920  0.926  1.000  1.000  1.000  0.999  0.998  0.998


   alpha    231    232    233    234    235    236    237    238    239    240
    beta    231    232    233    234    235    236    237    238    239    240
 overlap   0.994  0.944  0.947  0.991  0.997  0.992  0.992  0.983  0.978  0.996


   alpha    241    242    243    244    245    246    247    248    249    250
    beta    242    241    243    244    246    245    247    248    250    250
 overlap   0.750  0.723  0.865  0.969  0.755  0.751  0.964  0.895  0.712  0.699


   alpha    251    252    253    254    255    256    257    258    259    260
    beta    251    252    253    254    255    256    257    258    260    260
 overlap   0.918  0.948  0.965  0.988  0.994  0.849  0.787  0.796  0.660  0.641


   alpha    261    262    263    264    265    266    267    268    269    270
    beta    261    262    263    264    265    266    267    268    269    270
 overlap   0.939  0.978  0.971  0.985  0.987  0.988  0.997  0.998  0.991  0.989


   alpha    271    272    273    274    275    276    277    278    279    280
    beta    271    272    273    274    275    276    277    278    279    280
 overlap   0.995  0.997  0.986  0.989  0.996  0.946  0.950  1.000  1.000  1.000


   alpha    281    282    283    284    285    286    287    288    289    290
    beta    281    282    283    284    285    286    287    288    289    290
 overlap   1.000  1.000  1.000  1.000  1.000  1.000  0.991  0.991  0.996  0.996


   alpha    291    292    293    294    295    296    297    298    299    300
    beta    291    292    293    294    295    296    297    298    299    300
 overlap   0.998  0.999  0.999  1.000  1.000  1.000  1.000  1.000  1.000  1.000


   alpha    301    302    303    304
    beta    301    302    303    304
 overlap   1.000  1.000  1.000  1.000

     --------------------------
     Expectation value of S2:  
     --------------------------
      <S2> =      0.7547 (Exact =     0.7500)


 center of mass
 --------------
 x =  -0.01185414 y =  -0.01566272 z =   0.16247375

 moments of inertia (a.u.)
 ------------------
         373.752385759542          -2.248160825964          -0.352037270817
          -2.248160825964         377.852027255276           2.016987968490
          -0.352037270817           2.016987968490         361.021312760421

     Multipole analysis of the density
     ---------------------------------

     L   x y z        total         alpha         beta         nuclear
     -   - - -        -----         -----         ----         -------
     0   0 0 0     -0.000000    -25.000000    -24.000000     49.000000

     1   1 0 0      0.491335      0.121435      0.218394      0.151506
     1   0 1 0      0.212379      0.318088      0.388356     -0.494064
     1   0 0 1      0.396193     -4.275177     -5.018787      9.690157

     2   2 0 0    -26.194215    -61.518167    -57.056557     92.380509
     2   1 1 0      0.403014     -0.501696     -0.617838      1.522547
     2   1 0 1      2.202424     -0.247190     -0.287471      2.737084
     2   0 2 0    -27.086496    -60.548854    -55.950593     89.412952
     2   0 1 1      0.910337      0.517114      0.555100     -0.161876
     2   0 0 2    -24.568133    -65.426087    -64.718625    105.576579


 Task  times  cpu:       79.7s     wall:       81.3s


                                NWChem Input Module
                                -------------------


 Summary of allocated global arrays
-----------------------------------
  No active global arrays


MA_summarize_allocated_blocks: starting scan ...
heap block 'gridpts', handle 115, address 0x10bc2f40:
	type of elements:		double precision
	number of elements:		33554432
	address of client space:	0x10bc2fc0
	index for client space:		10490193
	total number of bytes:		268435592
MA_summarize_allocated_blocks: scan completed: 1 heap block, 0 stack blocks
MA usage statistics:

	allocation statistics:
					      heap	     stack
					      ----	     -----
	current number of blocks	         1	         0
	maximum number of blocks	        21	        53
	current total bytes		 268435592	         0
	maximum total bytes		 269089240	  39027784
	maximum total K-bytes		    269090	     39028
	maximum total M-bytes		       270	        40


                                     CITATION
                                     --------
                Please cite the following reference when publishing
                           results obtained with NWChem:

          E. Apra, E. J. Bylaska, W. A. de Jong, N. Govind, K. Kowalski,
       T. P. Straatsma, M. Valiev, H. J. J. van Dam, Y. Alexeev, J. Anchell,
       V. Anisimov, F. W. Aquino, R. Atta-Fynn, J. Autschbach, N. P. Bauman,
     J. C. Becca, D. E. Bernholdt, K. Bhaskaran-Nair, S. Bogatko, P. Borowski,
         J. Boschen, J. Brabec, A. Bruner, E. Cauet, Y. Chen, G. N. Chuev,
      C. J. Cramer, J. Daily, M. J. O. Deegan, T. H. Dunning Jr., M. Dupuis,
   K. G. Dyall, G. I. Fann, S. A. Fischer, A. Fonari, H. Fruchtl, L. Gagliardi,
      J. Garza, N. Gawande, S. Ghosh, K. Glaesemann, A. W. Gotz, J. Hammond,
       V. Helms, E. D. Hermes, K. Hirao, S. Hirata, M. Jacquelin, L. Jensen,
   B. G. Johnson, H. Jonsson, R. A. Kendall, M. Klemm, R. Kobayashi, V. Konkov,
      S. Krishnamoorthy, M. Krishnan, Z. Lin, R. D. Lins, R. J. Littlefield,
      A. J. Logsdail, K. Lopata, W. Ma, A. V. Marenich, J. Martin del Campo,
   D. Mejia-Rodriguez, J. E. Moore, J. M. Mullin, T. Nakajima, D. R. Nascimento,
    J. A. Nichols, P. J. Nichols, J. Nieplocha, A. Otero-de-la-Roza, B. Palmer,
    A. Panyala, T. Pirojsirikul, B. Peng, R. Peverati, J. Pittner, L. Pollack,
   R. M. Richard, P. Sadayappan, G. C. Schatz, W. A. Shelton, D. W. Silverstein,
   D. M. A. Smith, T. A. Soares, D. Song, M. Swart, H. L. Taylor, G. S. Thomas,
            V. Tipparaju, D. G. Truhlar, K. Tsemekhman, T. Van Voorhis,
      A. Vazquez-Mayagoitia, P. Verma, O. Villa, A. Vishnu, K. D. Vogiatzis,
        D. Wang, J. H. Weare, M. J. Williamson, T. L. Windus, K. Wolinski,
        A. T. Wong, Q. Wu, C. Yang, Q. Yu, M. Zacharias, Z. Zhang, Y. Zhao,
                                and R. J. Harrison
                        "NWChem: Past, present, and future
                         J. Chem. Phys. 152, 184102 (2020)
                               doi:10.1063/5.0004997

                                      AUTHORS
                                      -------
  E. Apra, E. J. Bylaska, N. Govind, K. Kowalski, M. Valiev, D. Mejia-Rodriguez,
       A. Kunitsa, N. P. Bauman, A. Panyala, W. A. de Jong, T. P. Straatsma,
   H. J. J. van Dam, D. Wang, T. L. Windus, J. Hammond, J. Autschbach, A. Woods,
    K. Bhaskaran-Nair, J. Brabec, K. Lopata, S. A. Fischer, S. Krishnamoorthy,
     M. Jacquelin, W. Ma, M. Klemm, O. Villa, Y. Chen, V. Anisimov, F. Aquino,
     S. Hirata, M. T. Hackler, E. Hermes, L. Jensen, J. E. Moore, J. C. Becca,
      V. Konjkov, T. Risthaus, M. Malagoli, A. Marenich, A. Otero-de-la-Roza,
        J. Mullin, P. Nichols, R. Peverati, J. Pittner, Y. Zhao, P.-D. Fan,
        A. Fonari, M. J. Williamson, R. J. Harrison, J. R. Rehr, M. Dupuis,
     D. Silverstein, D. M. A. Smith, J. Nieplocha, V. Tipparaju, M. Krishnan,
     B. E. Van Kuiken, A. Vazquez-Mayagoitia, M. Swart, Q. Wu, T. Van Voorhis,
     A. A. Auer, M. Nooijen, L. D. Crosby, E. Brown, G. Cisneros, G. I. Fann,
   H. Fruchtl, J. Garza, K. Hirao, R. A. Kendall, J. A. Nichols, K. Tsemekhman,
    K. Wolinski, J. Anchell, D. E. Bernholdt, P. Borowski, T. Clark, D. Clerc,
   H. Dachsel, M. J. O. Deegan, K. Dyall, D. Elwood, E. Glendening, M. Gutowski,
   A. C. Hess, J. Jaffe, B. G. Johnson, J. Ju, R. Kobayashi, R. Kutteh, Z. Lin,
   R. Littlefield, X. Long, B. Meng, T. Nakajima, S. Niu, L. Pollack, M. Rosing,
   K. Glaesemann, G. Sandrone, M. Stave, H. Taylor, G. Thomas, J. H. van Lenthe,
                               A. T. Wong, Z. Zhang.

 Total times  cpu:       79.9s     wall:       81.6s
