 argument  1 = m3e/mol.nwi
                                         
                                         


             Northwest Computational Chemistry Package (NWChem) 7.2.2
             --------------------------------------------------------


                    Environmental Molecular Sciences Laboratory
                       Pacific Northwest National Laboratory
                                Richland, WA 99352

                              Copyright (c) 1994-2022
                       Pacific Northwest National Laboratory
                            Battelle Memorial Institute

             NWChem is an open-source computational chemistry package
                        distributed under the terms of the
                      Educational Community License (ECL) 2.0
             A copy of the license is included with this distribution
                              in the LICENSE.TXT file

                                  ACKNOWLEDGMENT
                                  --------------

            This software and its documentation were developed at the
            EMSL at Pacific Northwest National Laboratory, a multiprogram
            national laboratory, operated for the U.S. Department of Energy
            by Battelle under Contract Number DE-AC05-76RL01830. Support
            for this work was provided by the Department of Energy Office
            of Biological and Environmental Research, Office of Basic
            Energy Sciences, and the Office of Advanced Scientific Computing.


           Job information
           ---------------

    hostname        = r272.ib.bridges2.psc.edu
    program         = nwchem
    date            = Tue Oct  1 15:21:33 2024

    compiled        = Mon_Mar_18_17:03:37_2024
    source          = /ocean/projects/pscstaff/mmadrid/nwchem-7.2.2
    nwchem branch   = 7.2.2
    nwchem revision = 74936fb9
    ga revision     = 5.8.0
    use scalapack   = F
    input           = m3e/mol.nwi
    prefix          = dft.
    data base       = .//dft.db
    status          = startup
    nproc           =       15
    time left       =     -1s



           Memory information
           ------------------

    heap     =   67108860 doubles =    512.0 Mbytes
    stack    =   67108865 doubles =    512.0 Mbytes
    global   =  134217728 doubles =   1024.0 Mbytes (distinct from heap & stack)
    total    =  268435453 doubles =   2048.0 Mbytes
    verify   = yes
    hardfail = no 


           Directory information
           ---------------------

  0 permanent = ./
  0 scratch   = /jet/home/hmt47/nwchem_scratch/




                                NWChem Input Module
                                -------------------


  library name resolved from: environment
  library file name is: </opt/packages/nwchem/nwchem7.2.2/share/nwchem/libraries/>
  


 Summary of "ao basis" -> "" (cartesian)
 ------------------------------------------------------------------------------
       Tag                 Description            Shells   Functions and Types
 ---------------- ------------------------------  ------  ---------------------
 *                        aug-cc-pVTZ                 on all atoms 


  pbe96 is a nonlocal functional; adding pw91lda local functional. 

 Scaling coordinates for geometry "geometry" by  1.889725989
 (inverse scale =  0.529177249)



                             Geometry "geometry" -> ""
                             -------------------------

 Output coordinates in angstroms (scale by  1.889725989 to convert to a.u.)

  No.       Tag          Charge          X              Y              Z
 ---- ---------------- ---------- -------------- -------------- --------------
    1 P                   15.0000     0.00000000     0.00000000     0.00000000
    2 O                    8.0000    -0.00166900     1.49190200    -0.54580400
    3 O                    8.0000     1.28860000    -0.74005700    -0.56163600
    4 O                    8.0000     0.00551600    -0.01508700     1.49518900
    5 O                    8.0000    -1.29152100    -0.74000900    -0.55610900

      Atomic Mass 
      ----------- 

      P                 30.973760
      O                 15.994910


 Effective nuclear repulsion energy (a.u.)     241.8827108014

            Nuclear Dipole moment (a.u.) 
            ----------------------------
        X                 Y               Z
 ---------------- ---------------- ----------------
     0.0139990901    -0.0491479935    -2.5452341395


            XYZ format geometry
            -------------------
     5
 geometry
 P                     0.00000000     0.00000000     0.00000000
 O                    -0.00166900     1.49190200    -0.54580400
 O                     1.28860000    -0.74005700    -0.56163600
 O                     0.00551600    -0.01508700     1.49518900
 O                    -1.29152100    -0.74000900    -0.55610900

 ==============================================================================
                                internuclear distances
 ------------------------------------------------------------------------------
       center one      |      center two      | atomic units |  angstroms
 ------------------------------------------------------------------------------
    2 O                |   1 P                |     3.00203  |     1.58861
    3 O                |   1 P                |     3.00199  |     1.58859
    4 O                |   1 P                |     2.82566  |     1.49528
    5 O                |   1 P                |     3.00276  |     1.58899
 ------------------------------------------------------------------------------
                         number of included internuclear distances:          4
 ==============================================================================



 ==============================================================================
                                 internuclear angles
 ------------------------------------------------------------------------------
        center 1       |       center 2       |       center 3       |  degrees
 ------------------------------------------------------------------------------
    2 O                |   1 P                |   3 O                |   108.47
    2 O                |   1 P                |   4 O                |   110.67
    2 O                |   1 P                |   5 O                |   108.44
    3 O                |   1 P                |   4 O                |   110.23
    3 O                |   1 P                |   5 O                |   108.58
    4 O                |   1 P                |   5 O                |   110.38
 ------------------------------------------------------------------------------
                            number of included internuclear angles:          6
 ==============================================================================





                           NWChem Geometry Optimization
                           ----------------------------


 maximum gradient threshold         (gmax) =   0.000450
 rms gradient threshold             (grms) =   0.000300
 maximum cartesian step threshold   (xmax) =   0.001800
 rms cartesian step threshold       (xrms) =   0.001200
 fixed trust radius                (trust) =   0.300000
 maximum step size to saddle      (sadstp) =   0.100000
 energy precision                  (eprec) =   5.0D-06
 maximum number of steps          (nptopt) =   40
 initial hessian option           (inhess) =    0
 line search option               (linopt) =    1
 hessian update option            (modupd) =    1
 saddle point option              (modsad) =    0
 initial eigen-mode to follow     (moddir) =    0
 initial variable to follow       (vardir) =    0
 follow first negative mode     (firstneg) =    T
 apply conjugacy                    (opcg) =    F
 source of zmatrix                         =           


          -------------------
          Energy Minimization
          -------------------


 Using diagonal initial Hessian 

          --------
          Step   0
          --------


                         Geometry "geometry" -> "geometry"
                         ---------------------------------

 Output coordinates in angstroms (scale by  1.889725989 to convert to a.u.)

  No.       Tag          Charge          X              Y              Z
 ---- ---------------- ---------- -------------- -------------- --------------
    1 P                   15.0000     0.00000000     0.00000000     0.00000000
    2 O                    8.0000    -0.00166900     1.49190200    -0.54580400
    3 O                    8.0000     1.28860000    -0.74005700    -0.56163600
    4 O                    8.0000     0.00551600    -0.01508700     1.49518900
    5 O                    8.0000    -1.29152100    -0.74000900    -0.55610900

      Atomic Mass 
      ----------- 

      P                 30.973760
      O                 15.994910


 Effective nuclear repulsion energy (a.u.)     241.8827108014

            Nuclear Dipole moment (a.u.) 
            ----------------------------
        X                 Y               Z
 ---------------- ---------------- ----------------
     0.0139990901    -0.0491479935    -2.5452341395


                                 NWChem DFT Module
                                 -----------------


                      Basis "ao basis" -> "ao basis" (cartesian)
                      -----
  P (Phosphorous)
  ---------------
            Exponent  Coefficients 
       -------------- ---------------------------------------------------------
  1 S  3.12400000E+05  0.000058
  1 S  4.68000000E+04  0.000448
  1 S  1.06500000E+04  0.002349
  1 S  3.01800000E+03  0.009783
  1 S  9.86800000E+02  0.034147
  1 S  3.57400000E+02  0.100204
  1 S  1.39600000E+02  0.234372
  1 S  5.76300000E+01  0.382434
  1 S  2.46000000E+01  0.318088
  1 S  1.01200000E+01  0.070779
  1 S  4.28300000E+00 -0.001818
  1 S  1.80500000E+00  0.002162
  1 S  2.78200000E-01  0.000432

  2 S  3.12400000E+05 -0.000016
  2 S  4.68000000E+04 -0.000122
  2 S  1.06500000E+04 -0.000640
  2 S  3.01800000E+03 -0.002674
  2 S  9.86800000E+02 -0.009498
  2 S  3.57400000E+02 -0.028935
  2 S  1.39600000E+02 -0.074512
  2 S  5.76300000E+01 -0.149938
  2 S  2.46000000E+01 -0.189467
  2 S  1.01200000E+01  0.036327
  2 S  4.28300000E+00  0.528816
  2 S  1.80500000E+00  0.519115
  2 S  2.78200000E-01 -0.009257

  3 S  3.12400000E+05  0.000004
  3 S  4.68000000E+04  0.000033
  3 S  1.06500000E+04  0.000176
  3 S  3.01800000E+03  0.000734
  3 S  9.86800000E+02  0.002618
  3 S  3.57400000E+02  0.007979
  3 S  1.39600000E+02  0.020794
  3 S  5.76300000E+01  0.042445
  3 S  2.46000000E+01  0.056344
  3 S  1.01200000E+01 -0.012736
  3 S  4.28300000E+00 -0.196495
  3 S  1.80500000E+00 -0.353555
  3 S  2.78200000E-01  0.700912

  4 S  6.15800000E-01  1.000000

  5 S  1.05500000E-01  1.000000

  6 S  4.09000000E-02  1.000000

  7 P  5.04900000E+02  0.002337
  7 P  1.19400000E+02  0.018541
  7 P  3.79600000E+01  0.084969
  7 P  1.39500000E+01  0.244615
  7 P  5.45700000E+00  0.422766
  7 P  2.17700000E+00  0.368439
  7 P  2.87700000E-01 -0.003790

  8 P  5.04900000E+02 -0.000555
  8 P  1.19400000E+02 -0.004459
  8 P  3.79600000E+01 -0.020635
  8 P  1.39500000E+01 -0.061769
  8 P  5.45700000E+00 -0.108924
  8 P  2.17700000E+00 -0.105599
  8 P  2.87700000E-01  0.576981

  9 P  8.01000000E-01  1.000000

 10 P  9.71400000E-02  1.000000

 11 P  3.07000000E-02  1.000000

 12 D  2.16000000E-01  1.000000

 13 D  6.52000000E-01  1.000000

 14 D  7.75000000E-02  1.000000

 15 F  4.52000000E-01  1.000000

 16 F  1.65000000E-01  1.000000

  O (Oxygen)
  ----------
            Exponent  Coefficients 
       -------------- ---------------------------------------------------------
  1 S  1.53300000E+04  0.000508
  1 S  2.29900000E+03  0.003929
  1 S  5.22400000E+02  0.020243
  1 S  1.47300000E+02  0.079181
  1 S  4.75500000E+01  0.230687
  1 S  1.67600000E+01  0.433118
  1 S  6.20700000E+00  0.350260
  1 S  6.88200000E-01 -0.008154

  2 S  1.53300000E+04 -0.000115
  2 S  2.29900000E+03 -0.000895
  2 S  5.22400000E+02 -0.004636
  2 S  1.47300000E+02 -0.018724
  2 S  4.75500000E+01 -0.058463
  2 S  1.67600000E+01 -0.136463
  2 S  6.20700000E+00 -0.175740
  2 S  6.88200000E-01  0.603418

  3 S  1.75200000E+00  1.000000

  4 S  2.38400000E-01  1.000000

  5 S  7.37600000E-02  1.000000

  6 P  3.44600000E+01  0.015928
  6 P  7.74900000E+00  0.099740
  6 P  2.28000000E+00  0.310492

  7 P  7.15600000E-01  1.000000

  8 P  2.14000000E-01  1.000000

  9 P  5.97400000E-02  1.000000

 10 D  2.31400000E+00  1.000000

 11 D  6.45000000E-01  1.000000

 12 D  2.14000000E-01  1.000000

 13 F  1.42800000E+00  1.000000

 14 F  5.00000000E-01  1.000000



 Summary of "ao basis" -> "ao basis" (cartesian)
 ------------------------------------------------------------------------------
       Tag                 Description            Shells   Functions and Types
 ---------------- ------------------------------  ------  ---------------------
 P                        aug-cc-pVTZ               16       59   6s5p3d2f
 O                        aug-cc-pVTZ               14       55   5s4p3d2f




 Summary of "ao basis" -> "ao basis" (cartesian)
 ------------------------------------------------------------------------------
       Tag                 Description            Shells   Functions and Types
 ---------------- ------------------------------  ------  ---------------------
 P                        aug-cc-pVTZ               16       59   6s5p3d2f
 O                        aug-cc-pVTZ               14       55   5s4p3d2f


  Caching 1-el integrals 

            General Information
            -------------------
          SCF calculation type: DFT
          Wavefunction type:  closed shell.
          No. of atoms     :     5
          No. of electrons :    50
           Alpha electrons :    25
            Beta electrons :    25
          Charge           :    -3
          Spin multiplicity:     1
          Use of symmetry is: off; symmetry adaption is: off
          Maximum number of iterations: 100
          AO basis - number of functions:   279
                     number of shells:    72
          Convergence on energy requested:  1.00D-06
          Convergence on density requested:  1.00D-05
          Convergence on gradient requested:  5.00D-04

              XC Information
              --------------
          PerdewBurkeErnzerhof Exchange Functional  1.000          
            Perdew 1991 LDA Correlation Functional  1.000 local    
           PerdewBurkeErnz. Correlation Functional  1.000 non-local

             Grid Information
             ----------------
          Grid used for XC integration:  medium    
          Radial quadrature: Mura-Knowles        
          Angular quadrature: Lebedev. 
          Tag              B.-S. Rad. Rad. Pts. Rad. Cut. Ang. Pts.
          ---              ---------- --------- --------- ---------
          P                   1.00       88          10.0       590
          O                   0.60       49          11.0       434
          Grid pruning is: on 
          Number of quadrature shells:   284
          Spatial weights used:  Erf1

          Convergence Information
          -----------------------
          Convergence aids based upon iterative change in 
          total energy or number of iterations. 
          Levelshifting, if invoked, occurs when the 
          HOMO/LUMO gap drops below (HL_TOL):  1.00D-02
          DIIS, if invoked, will attempt to extrapolate 
          using up to (NFOCK): 10 stored Fock matrices.

                    Damping(40%)  Levelshifting(0.0)       DIIS
                  --------------- ------------------- ---------------
          dE  on:    start            0.00D+00            start   
          dE off:  100 iters          0.00D+00          100 iters 


      Screening Tolerance Information
      -------------------------------
          Density screening/tol_rho:  1.00D-10
          AO Gaussian exp screening on grid/accAOfunc:  14
          CD Gaussian exp screening on grid/accCDfunc:  20
          XC Gaussian exp screening on grid/accXCfunc:  20
          Schwarz screening/accCoul:  1.00D-08


 Forcing the number of linearly dependent vectors to be  0

      Superposition of Atomic Density Guess
      -------------------------------------

 Sum of atomic energies:        -639.78286225
   Time after variat. SCF:      0.6
   Time prior to 1st pass:      0.6

 Grid_pts file          = /jet/home/hmt47/nwchem_scratch//dft.gridpts.00
 Record size in doubles =  12289        No. of grid_pts per rec  =   3070
 Max. records in memory =      5        Max. recs in file   =  67550051

 Grid integrated density:      47.000001299370
 Requested integration accuracy:   0.10E-05

           Memory utilization after 1st SCF pass: 
           Heap Space remaining (MW):       33.36            33363908
          Stack Space remaining (MW):       67.11            67107372

   convergence    iter        energy       DeltaE   RMS-Dens  Diis-err    time
 ---------------- ----- ----------------- --------- --------- ---------  ------
 d=40,ls=0.0,diis     1   -642.5834442118 -8.84D+02  1.14D-02  4.12D+01     1.2
 Grid integrated density:      48.800000764105
 Requested integration accuracy:   0.10E-05
 d=40,ls=0.0,diis     2   -642.0988056377  4.85D-01  9.59D+00  7.90D+00     3.5
 Grid integrated density:      49.519998640074
 Requested integration accuracy:   0.10E-05
 d=40,ls=0.0,diis     3   -634.7576323206  7.34D+00  5.76D+00  2.03D+01     6.0
 Grid integrated density:      49.807999736124
 Requested integration accuracy:   0.10E-05
 d=40,ls=0.0,diis     4   -640.8168133784 -6.06D+00  2.30D+00  1.86D+00     8.4
 Grid integrated density:      49.923200314923
 Requested integration accuracy:   0.10E-05
 d=40,ls=0.0,diis     5   -641.5183135553 -7.02D-01  9.18D-01  5.85D-02    10.9
 Grid integrated density:      49.969280616224
 Requested integration accuracy:   0.10E-05
 d=40,ls=0.0,diis     6   -641.5964219569 -7.81D-02  3.63D-01  1.60D-01    13.8
 Grid integrated density:      49.987712759481
 Requested integration accuracy:   0.10E-05
  Resetting Diis
 d=40,ls=0.0,diis     7   -641.6287405834 -3.23D-02  1.47D-01  1.60D-01    16.5
 Grid integrated density:      49.995085942158
 Requested integration accuracy:   0.10E-05
 d=40,ls=0.0,diis     8   -641.6441516878 -1.54D-02  2.63D+00  1.43D-01    19.2
 Grid integrated density:      49.998024967581
 Requested integration accuracy:   0.10E-05
 d=40,ls=0.0,diis     9   -640.0922717739  1.55D+00  1.62D+00  6.09D+00    21.9
 Grid integrated density:      49.999210713990
 Requested integration accuracy:   0.10E-05
 d=40,ls=0.0,diis    10   -641.4807458739 -1.39D+00  6.44D-01  6.89D-01    24.6
 Grid integrated density:      49.999684984213
 Requested integration accuracy:   0.10E-05
 d=40,ls=0.0,diis    11   -641.6520954932 -1.71D-01  2.55D-01  3.78D-02    27.3
 Grid integrated density:      49.999874678601
 Requested integration accuracy:   0.10E-05
 d=40,ls=0.0,diis    12   -641.6689722501 -1.69D-02  1.02D-01  2.63D-03    30.0
 d=40,ls=0.0,diis    13   -641.6694265408 -4.54D-04  4.04D-02  2.10D-02    32.7
 d=40,ls=0.0,diis    14   -641.6689061208  5.20D-04  1.41D-02  3.26D-02    35.7
 d=40,ls=0.0,diis    15   -641.6694840220 -5.78D-04  1.19D+00  3.30D-02    38.4
 d=40,ls=0.0,diis    16   -641.4851838915  1.84D-01  5.37D-01  7.78D-01    41.1
 d=40,ls=0.0,diis    17   -641.1644818042  3.21D-01  3.20D-01  2.13D+00    43.8
 d=40,ls=0.0,diis    18   -640.9051980042  2.59D-01  1.01D+00  3.14D+00    46.6
 d=40,ls=0.0,diis    19   -639.9196950269  9.86D-01  4.04D-01  5.46D+00    49.3
 d=40,ls=0.0,diis    20   -639.3756267102  5.44D-01  9.88D-01  6.81D+00    52.1
 d=40,ls=0.0,diis    21   -640.5911132919 -1.22D+00  1.25D+00  3.67D+00    54.8
 d=40,ls=0.0,diis    22   -641.5267147549 -9.36D-01  5.06D-01  5.25D-01    57.6
 d=40,ls=0.0,diis    23   -641.6604194108 -1.34D-01  2.03D-01  4.57D-02    60.3
 d=40,ls=0.0,diis    24   -641.6739357676 -1.35D-02  7.91D-02  1.02D-03    63.0
 d=40,ls=0.0,diis    25   -641.6734351386  5.01D-04  3.28D-02  9.77D-03    65.7
 d=40,ls=0.0,diis    26   -641.6724543036  9.81D-04  1.16D-02  1.73D-02    68.5
 d=40,ls=0.0,diis    27   -641.6723620295  9.23D-05  5.52D-03  1.88D-02    71.2
 d=40,ls=0.0,diis    28   -641.6723556335  6.40D-06  2.35D-03  1.91D-02    73.9
 d=40,ls=0.0,diis    29   -641.6724105782 -5.49D-05  7.76D-04  1.90D-02    76.6
 d=40,ls=0.0,diis    30   -641.6725540284 -1.43D-04  6.35D-04  1.82D-02    79.3
 d=40,ls=0.0,diis    31   -641.6727420793 -1.88D-04  1.95D-03  1.72D-02    82.0
 d=40,ls=0.0,diis    32   -641.6729059483 -1.64D-04  8.91D-04  1.66D-02    84.6
 d=40,ls=0.0,diis    33   -641.6730464638 -1.41D-04  2.02D-03  1.59D-02    87.3
 d=40,ls=0.0,diis    34   -641.6732348808 -1.88D-04  2.79D-03  1.50D-02    90.0
 d=40,ls=0.0,diis    35   -641.6738022968 -5.67D-04  3.25D-02  1.19D-02    92.7
 d=40,ls=0.0,diis    36   -641.6756474823 -1.85D-03  1.62D-02  9.65D-04    95.4
 d=40,ls=0.0,diis    37   -641.6754959375  1.52D-04  9.21D-03  2.07D-03    98.1
 d=40,ls=0.0,diis    38   -641.6751597079  3.36D-04  1.17D-02  4.19D-03   100.8
 d=40,ls=0.0,diis    39   -641.6756063330 -4.47D-04  2.12D-03  1.70D-03   103.8
 d=40,ls=0.0,diis    40   -641.6756501361 -4.38D-05  3.59D-03  1.51D-03   106.5
 d=40,ls=0.0,diis    41   -641.6757541085 -1.04D-04  2.38D-03  9.21D-04   109.2
 d=40,ls=0.0,diis    42   -641.6758096297 -5.55D-05  1.93D-03  5.79D-04   111.9
 d=40,ls=0.0,diis    43   -641.6758486972 -3.91D-05  3.71D-03  3.44D-04   114.6
 d=40,ls=0.0,diis    44   -641.6758943416 -4.56D-05  2.40D-03  7.20D-05   117.3
 d=40,ls=0.0,diis    45   -641.6759052373 -1.09D-05  1.56D-03  1.17D-05   120.2
 d=40,ls=0.0,diis    46   -641.6759065381 -1.30D-06  2.21D-03  7.38D-06   122.9
 d=40,ls=0.0,diis    47   -641.6759069041 -3.66D-07  1.19D-03  5.90D-06   125.6
 d=40,ls=0.0,diis    48   -641.6759079753 -1.07D-06  1.95D-04  6.19D-07   128.3
 d=40,ls=0.0,diis    49   -641.6759082375 -2.62D-07  1.04D-04  7.28D-08   130.9
 d=40,ls=0.0,diis    50   -641.6759083191 -8.16D-08  2.97D-05  4.34D-09   133.6
 d=40,ls=0.0,diis    51   -641.6759083482 -2.91D-08  1.28D-05  3.70D-10   136.3
 d=40,ls=0.0,diis    52   -641.6759083596 -1.14D-08  1.28D-05  1.45D-10   139.0
 d=40,ls=0.0,diis    53   -641.6759083642 -4.59D-09  1.78D-05  9.25D-11   141.7
 d=40,ls=0.0,diis    54   -641.6759083660 -1.82D-09  1.43D-05  1.04D-10   144.4
 d=40,ls=0.0,diis    55   -641.6759083668 -7.53D-10  8.59D-06  3.37D-11   147.1


         Total DFT energy =     -641.675908366792
      One electron energy =    -1397.544084325843
           Coulomb energy =      571.795680636080
    Exchange-Corr. energy =      -57.810215478382
 Nuclear repulsion energy =      241.882710801352

 Numeric. integr. density =       50.000000753031

     Total iterative time =    146.5s



                       DFT Final Molecular Orbital Analysis
                       ------------------------------------

 Vector    1  Occ=2.000000D+00  E=-7.581449D+01
              MO Center=  2.8D-09,  1.9D-09,  6.3D-07, r^2= 4.1D-03
   Bfn.  Coefficient  Atom+Function         Bfn.  Coefficient  Atom+Function  
  ----- ------------  ---------------      ----- ------------  ---------------
     1      1.004946  1 P  s                  3      0.044111  1 P  s          
     2      0.032901  1 P  s          

 Vector    2  Occ=2.000000D+00  E=-1.815612D+01
              MO Center= -2.1D-03,  1.5D+00, -5.5D-01, r^2= 2.1D-02
   Bfn.  Coefficient  Atom+Function         Bfn.  Coefficient  Atom+Function  
  ----- ------------  ---------------      ----- ------------  ---------------
    60      0.977930  2 O  s                  5     -0.067704  1 P  s          
    62      0.063046  2 O  s                 64     -0.053283  2 O  s          
    72     -0.033834  2 O  py                63     -0.033170  2 O  s          
   173      0.029022  4 O  s                 52      0.028097  1 P  fxxz       
    92      0.028203  2 O  dyy              118      0.026050  3 O  s          

 Vector    3  Occ=2.000000D+00  E=-1.815577D+01
              MO Center= -1.3D+00, -7.4D-01, -5.6D-01, r^2= 3.7D-02
   Bfn.  Coefficient  Atom+Function         Bfn.  Coefficient  Atom+Function  
  ----- ------------  ---------------      ----- ------------  ---------------
   225      0.976775  5 O  s                  5     -0.067104  1 P  s          
   227      0.062958  5 O  s                229     -0.052922  5 O  s          
   115      0.050515  3 O  s                228     -0.033428  5 O  s          
   236      0.029250  5 O  px               173      0.028745  4 O  s          
    63      0.028322  2 O  s                254      0.026984  5 O  dxx        

 Vector    4  Occ=2.000000D+00  E=-1.815561D+01
              MO Center=  1.3D+00, -7.4D-01, -5.6D-01, r^2= 3.4D-02
   Bfn.  Coefficient  Atom+Function         Bfn.  Coefficient  Atom+Function  
  ----- ------------  ---------------      ----- ------------  ---------------
   115      0.976886  3 O  s                117      0.062899  3 O  s          
     5     -0.061352  1 P  s                119     -0.051541  3 O  s          
   225     -0.049365  5 O  s                118     -0.035779  3 O  s          
   228      0.027551  5 O  s                126     -0.027139  3 O  px         
   173      0.026280  4 O  s                144      0.025940  3 O  dxx        

 Vector    5  Occ=2.000000D+00  E=-1.814278D+01
              MO Center=  5.5D-03, -1.5D-02,  1.5D+00, r^2= 1.5D-02
   Bfn.  Coefficient  Atom+Function         Bfn.  Coefficient  Atom+Function  
  ----- ------------  ---------------      ----- ------------  ---------------
   170      0.978559  4 O  s                172      0.063447  4 O  s          
   174     -0.060161  4 O  s                  5     -0.052837  1 P  s          
   173     -0.037388  4 O  s                183     -0.034257  4 O  pz         
   204      0.028879  4 O  dzz               39      0.025895  1 P  dzz        
    18      0.025252  1 P  pz         

 Vector    6  Occ=2.000000D+00  E=-5.799509D+00
              MO Center= -4.7D-06,  9.9D-06, -3.9D-04, r^2= 9.1D-02
   Bfn.  Coefficient  Atom+Function         Bfn.  Coefficient  Atom+Function  
  ----- ------------  ---------------      ----- ------------  ---------------
     2      0.900369  1 P  s                  4      0.104770  1 P  s          
     3     -0.054991  1 P  s          

 Vector    7  Occ=2.000000D+00  E=-4.016199D+00
              MO Center= -4.2D-05,  1.0D-04, -9.5D-05, r^2= 8.3D-02
   Bfn.  Coefficient  Atom+Function         Bfn.  Coefficient  Atom+Function  
  ----- ------------  ---------------      ----- ------------  ---------------
     8      1.047298  1 P  py                11      0.247243  1 P  py         
     7      0.201975  1 P  px                48     -0.103085  1 P  fyzz       
    41     -0.102135  1 P  fxxy              46     -0.102139  1 P  fyyy       
    10      0.047668  1 P  px                72      0.031829  2 O  py         
    63     -0.026618  2 O  s          

 Vector    8  Occ=2.000000D+00  E=-4.016191D+00
              MO Center=  4.4D-05, -1.0D-04, -9.6D-05, r^2= 8.3D-02
   Bfn.  Coefficient  Atom+Function         Bfn.  Coefficient  Atom+Function  
  ----- ------------  ---------------      ----- ------------  ---------------
     7      1.047443  1 P  px                10      0.247335  1 P  px         
     8     -0.201839  1 P  py                45     -0.103061  1 P  fxzz       
    40     -0.102169  1 P  fxxx              43     -0.102196  1 P  fxyy       
    11     -0.047674  1 P  py               126      0.026203  3 O  px         
   118     -0.025927  3 O  s          

 Vector    9  Occ=2.000000D+00  E=-4.015782D+00
              MO Center=  2.7D-06, -7.1D-06,  6.6D-04, r^2= 8.3D-02
   Bfn.  Coefficient  Atom+Function         Bfn.  Coefficient  Atom+Function  
  ----- ------------  ---------------      ----- ------------  ---------------
     9      1.071837  1 P  pz                12      0.264551  1 P  pz         
    42     -0.109184  1 P  fxxz              47     -0.109169  1 P  fyyz       
    49     -0.106391  1 P  fzzz             183      0.038806  4 O  pz         
   173     -0.036078  4 O  s          

 Vector   10  Occ=2.000000D+00  E=-3.623998D-01
              MO Center=  1.4D-03, -1.3D-03,  1.7D-01, r^2= 1.9D+00
   Bfn.  Coefficient  Atom+Function         Bfn.  Coefficient  Atom+Function  
  ----- ------------  ---------------      ----- ------------  ---------------
     3      0.300227  1 P  s                171      0.256256  4 O  s          
    61      0.183347  2 O  s                116      0.182910  3 O  s          
   226      0.182683  5 O  s                173      0.115086  4 O  s          
    63      0.083854  2 O  s                118      0.083816  3 O  s          
   228      0.083613  5 O  s                  4      0.079755  1 P  s          

 Vector   11  Occ=2.000000D+00  E=-2.755823D-01
              MO Center= -3.1D-03,  2.0D-02,  5.9D-01, r^2= 1.9D+00
   Bfn.  Coefficient  Atom+Function         Bfn.  Coefficient  Atom+Function  
  ----- ------------  ---------------      ----- ------------  ---------------
   171      0.388207  4 O  s                173      0.224333  4 O  s          
    61     -0.180397  2 O  s                 12      0.170152  1 P  pz         
   226     -0.168211  5 O  s                116     -0.164742  3 O  s          
    18     -0.161492  1 P  pz               174      0.114987  4 O  s          
   172      0.107420  4 O  s                 63     -0.105713  2 O  s          

 Vector   12  Occ=2.000000D+00  E=-2.636522D-01
              MO Center=  3.2D-02,  6.1D-01, -4.7D-01, r^2= 1.9D+00
   Bfn.  Coefficient  Atom+Function         Bfn.  Coefficient  Atom+Function  
  ----- ------------  ---------------      ----- ------------  ---------------
    61      0.398906  2 O  s                 63      0.253552  2 O  s          
   116     -0.214490  3 O  s                226     -0.196881  5 O  s          
    17     -0.163549  1 P  py                11      0.154001  1 P  py         
   118     -0.135379  3 O  s                228     -0.124240  5 O  s          
    64      0.112328  2 O  s                 62      0.111744  2 O  s          

 Vector   13  Occ=2.000000D+00  E=-2.634979D-01
              MO Center= -2.9D-02, -6.4D-01, -4.8D-01, r^2= 1.9D+00
   Bfn.  Coefficient  Atom+Function         Bfn.  Coefficient  Atom+Function  
  ----- ------------  ---------------      ----- ------------  ---------------
   226     -0.353522  5 O  s                116      0.344627  3 O  s          
   228     -0.224527  5 O  s                118      0.218431  3 O  s          
    16     -0.163859  1 P  px                10      0.154254  1 P  px         
   229     -0.099595  5 O  s                227     -0.099048  5 O  s          
   119      0.097129  3 O  s                117      0.096551  3 O  s          

 Vector   14  Occ=2.000000D+00  E= 1.159369D-01
              MO Center= -1.5D-04,  1.2D-03, -2.1D-02, r^2= 3.3D+00
   Bfn.  Coefficient  Atom+Function         Bfn.  Coefficient  Atom+Function  
  ----- ------------  ---------------      ----- ------------  ---------------
     3      0.390033  1 P  s                  5      0.230606  1 P  s          
   173     -0.186146  4 O  s                 63     -0.179928  2 O  s          
   118     -0.179475  3 O  s                228     -0.179565  5 O  s          
   171     -0.154978  4 O  s                 61     -0.147422  2 O  s          
   116     -0.147127  3 O  s                226     -0.147171  5 O  s          

 Vector   15  Occ=2.000000D+00  E= 1.999284D-01
              MO Center= -1.3D-01,  4.0D-01, -2.4D-01, r^2= 2.9D+00
   Bfn.  Coefficient  Atom+Function         Bfn.  Coefficient  Atom+Function  
  ----- ------------  ---------------      ----- ------------  ---------------
    11      0.256948  1 P  py                17     -0.244336  1 P  py         
    66     -0.181730  2 O  py                69     -0.178606  2 O  py         
    63     -0.176491  2 O  s                 58      0.155666  1 P  fyzz       
    51      0.142237  1 P  fxxy              14      0.139814  1 P  py         
    56      0.140017  1 P  fyyy             230     -0.132033  5 O  px         

 Vector   16  Occ=2.000000D+00  E= 1.999674D-01
              MO Center=  1.2D-01, -3.7D-01, -2.5D-01, r^2= 2.9D+00
   Bfn.  Coefficient  Atom+Function         Bfn.  Coefficient  Atom+Function  
  ----- ------------  ---------------      ----- ------------  ---------------
    10      0.257065  1 P  px                16     -0.241756  1 P  px         
   118     -0.166473  3 O  s                 55      0.155056  1 P  fxzz       
    13      0.139818  1 P  px                50      0.140121  1 P  fxxx       
    53      0.140361  1 P  fxyy             228      0.137754  5 O  s          
   120     -0.127583  3 O  px               123     -0.125194  3 O  px         

 Vector   17  Occ=2.000000D+00  E= 2.029813D-01
              MO Center=  1.1D-02, -3.0D-02,  6.4D-01, r^2= 2.7D+00
   Bfn.  Coefficient  Atom+Function         Bfn.  Coefficient  Atom+Function  
  ----- ------------  ---------------      ----- ------------  ---------------
    18     -0.254483  1 P  pz                12      0.249557  1 P  pz         
   177     -0.236764  4 O  pz               180     -0.227856  4 O  pz         
   173     -0.214788  4 O  s                 15      0.141528  1 P  pz         
    57      0.141034  1 P  fyyz             171     -0.140757  4 O  s          
    52      0.140016  1 P  fxxz              59      0.134467  1 P  fzzz       

 Vector   18  Occ=2.000000D+00  E= 2.833392D-01
              MO Center=  5.2D-02, -1.5D-01,  2.2D-01, r^2= 3.1D+00
   Bfn.  Coefficient  Atom+Function         Bfn.  Coefficient  Atom+Function  
  ----- ------------  ---------------      ----- ------------  ---------------
    16      0.259497  1 P  px               119     -0.211755  3 O  s          
   175      0.205144  4 O  px               178      0.202346  4 O  px         
   229      0.171468  5 O  s                181      0.167700  4 O  px         
    30      0.152257  1 P  dxz               65     -0.131660  2 O  px         
   122      0.131654  3 O  pz               125      0.131319  3 O  pz         

 Vector   19  Occ=2.000000D+00  E= 2.836308D-01
              MO Center= -5.6D-02,  1.8D-01,  2.4D-01, r^2= 3.1D+00
   Bfn.  Coefficient  Atom+Function         Bfn.  Coefficient  Atom+Function  
  ----- ------------  ---------------      ----- ------------  ---------------
    17      0.287692  1 P  py                64     -0.247546  2 O  s          
   176      0.207922  4 O  py               179      0.205161  4 O  py         
   182      0.169234  4 O  py               229      0.161619  5 O  s          
    32      0.155140  1 P  dyz               67      0.141429  2 O  pz         
    70      0.141271  2 O  pz                38     -0.132638  1 P  dyz        

 Vector   20  Occ=2.000000D+00  E= 2.909412D-01
              MO Center= -3.3D-03,  5.8D-03, -1.6D-01, r^2= 4.1D+00
   Bfn.  Coefficient  Atom+Function         Bfn.  Coefficient  Atom+Function  
  ----- ------------  ---------------      ----- ------------  ---------------
   174     -0.784221  4 O  s                 18      0.763639  1 P  pz         
    21      0.365939  1 P  pz                64      0.355625  2 O  s          
   229      0.284896  5 O  s                119      0.265218  3 O  s          
   183      0.187616  4 O  pz                59     -0.185844  1 P  fzzz       
   186      0.182288  4 O  pz                67      0.174215  2 O  pz         

 Vector   21  Occ=2.000000D+00  E= 2.923175D-01
              MO Center=  8.9D-02, -2.1D-01, -3.2D-01, r^2= 4.1D+00
   Bfn.  Coefficient  Atom+Function         Bfn.  Coefficient  Atom+Function  
  ----- ------------  ---------------      ----- ------------  ---------------
    17      0.826387  1 P  py                64     -0.797831  2 O  s          
   229      0.575621  5 O  s                 20      0.417491  1 P  py         
   119      0.248391  3 O  s                 51     -0.205352  1 P  fxxy       
    56     -0.202443  1 P  fyyy              16      0.193958  1 P  px         
   121      0.191494  3 O  py               124      0.187258  3 O  py         

 Vector   22  Occ=2.000000D+00  E= 2.924359D-01
              MO Center= -8.3D-02,  1.7D-01, -2.9D-01, r^2= 4.1D+00
   Bfn.  Coefficient  Atom+Function         Bfn.  Coefficient  Atom+Function  
  ----- ------------  ---------------      ----- ------------  ---------------
    16      0.822144  1 P  px               119     -0.791709  3 O  s          
   229      0.594684  5 O  s                 19      0.411944  1 P  px         
    50     -0.202480  1 P  fxxx              53     -0.202298  1 P  fxyy       
    65      0.195141  2 O  px                17     -0.192966  1 P  py         
    68      0.193707  2 O  px                64      0.183873  2 O  s          

 Vector   23  Occ=2.000000D+00  E= 3.502284D-01
              MO Center= -3.5D-01,  2.8D-01, -5.7D-02, r^2= 3.5D+00
   Bfn.  Coefficient  Atom+Function         Bfn.  Coefficient  Atom+Function  
  ----- ------------  ---------------      ----- ------------  ---------------
    17      0.722061  1 P  py                64     -0.697575  2 O  s          
   229      0.453310  5 O  s                 20      0.449721  1 P  py         
   185     -0.285582  4 O  py                70      0.183428  2 O  pz         
    67      0.182368  2 O  pz               176     -0.182903  4 O  py         
    16      0.180484  1 P  px               179     -0.181075  4 O  py         

 Vector   24  Occ=2.000000D+00  E= 3.503028D-01
              MO Center=  2.6D-01,  1.7D-01, -2.8D-01, r^2= 3.4D+00
   Bfn.  Coefficient  Atom+Function         Bfn.  Coefficient  Atom+Function  
  ----- ------------  ---------------      ----- ------------  ---------------
    17      0.533322  1 P  py                64     -0.517848  2 O  s          
    20      0.332108  1 P  py               119      0.266194  3 O  s          
   185     -0.213113  4 O  py               121      0.198469  3 O  py         
   124      0.197973  3 O  py                65     -0.185715  2 O  px         
    68     -0.185467  2 O  px               229      0.180824  5 O  s          

 Vector   25  Occ=2.000000D+00  E= 3.506855D-01
              MO Center=  8.5D-02, -4.6D-01,  1.2D-01, r^2= 3.4D+00
   Bfn.  Coefficient  Atom+Function         Bfn.  Coefficient  Atom+Function  
  ----- ------------  ---------------      ----- ------------  ---------------
    16      0.657541  1 P  px               119     -0.562443  3 O  s          
   229      0.507882  5 O  s                 19      0.422837  1 P  px         
   184     -0.315117  4 O  px               175     -0.223183  4 O  px         
   178     -0.221532  4 O  px               122      0.209844  3 O  pz         
   125      0.210640  3 O  pz               181     -0.188504  4 O  px         

 Vector   26  Occ=0.000000D+00  E= 3.538250D-01
              MO Center= -4.9D-02,  2.2D-01, -1.5D-01, r^2= 2.2D+01
   Bfn.  Coefficient  Atom+Function         Bfn.  Coefficient  Atom+Function  
  ----- ------------  ---------------      ----- ------------  ---------------
    17      5.735811  1 P  py                64     -5.150023  2 O  s          
    20      3.160670  1 P  py               229      2.937300  5 O  s          
   119      1.847179  3 O  s                 51     -1.340480  1 P  fxxy       
    56     -1.336969  1 P  fyyy              58     -1.189173  1 P  fyzz       
   185     -0.862258  4 O  py                16      0.715936  1 P  px         

 Vector   27  Occ=0.000000D+00  E= 3.548670D-01
              MO Center=  4.1D-02, -1.9D-01, -1.4D-01, r^2= 2.2D+01
   Bfn.  Coefficient  Atom+Function         Bfn.  Coefficient  Atom+Function  
  ----- ------------  ---------------      ----- ------------  ---------------
    16      5.800363  1 P  px               119     -4.666842  3 O  s          
   229      4.119762  5 O  s                 19      3.176030  1 P  px         
    50     -1.352990  1 P  fxxx              53     -1.353275  1 P  fxyy       
    55     -1.211263  1 P  fxzz              35     -0.895694  1 P  dxy        
   184     -0.871893  4 O  px                74     -0.834946  2 O  px         

 Vector   28  Occ=0.000000D+00  E= 3.586955D-01
              MO Center=  2.4D-03, -6.2D-03,  6.3D-01, r^2= 2.2D+01
   Bfn.  Coefficient  Atom+Function         Bfn.  Coefficient  Atom+Function  
  ----- ------------  ---------------      ----- ------------  ---------------
    18      6.578409  1 P  pz               174     -5.948928  4 O  s          
    21      3.179088  1 P  pz               119      2.197088  3 O  s          
   229      2.133416  5 O  s                 64      1.943721  2 O  s          
    52     -1.630438  1 P  fxxz              57     -1.625590  1 P  fyyz       
    59     -1.550695  1 P  fzzz             183      0.821753  4 O  pz         

 Vector   29  Occ=0.000000D+00  E= 3.705644D-01
              MO Center=  3.9D-03, -2.1D-02, -2.6D-01, r^2= 1.8D+01
   Bfn.  Coefficient  Atom+Function         Bfn.  Coefficient  Atom+Function  
  ----- ------------  ---------------      ----- ------------  ---------------
     5     14.525039  1 P  s                  6      7.862735  1 P  s          
    64     -3.516466  2 O  s                229     -3.439030  5 O  s          
   119     -3.413046  3 O  s                174     -2.672942  4 O  s          
   173     -2.396053  4 O  s                 63     -2.204570  2 O  s          
   118     -2.190705  3 O  s                228     -2.193005  5 O  s          

 Vector   30  Occ=0.000000D+00  E= 4.410338D-01
              MO Center= -1.6D-01,  7.5D-01, -5.5D-01, r^2= 1.8D+01
   Bfn.  Coefficient  Atom+Function         Bfn.  Coefficient  Atom+Function  
  ----- ------------  ---------------      ----- ------------  ---------------
    17     17.725997  1 P  py                64    -10.954973  2 O  s          
   229      6.264110  5 O  s                 58     -5.064423  1 P  fyzz       
    51     -4.995129  1 P  fxxy              56     -4.991315  1 P  fyyy       
    75      4.694473  2 O  py               119      4.070329  3 O  s          
   239      2.226792  5 O  px                16      2.085675  1 P  px         

 Vector   31  Occ=0.000000D+00  E= 4.416669D-01
              MO Center=  1.4D-01, -6.8D-01, -5.6D-01, r^2= 1.8D+01
   Bfn.  Coefficient  Atom+Function         Bfn.  Coefficient  Atom+Function  
  ----- ------------  ---------------      ----- ------------  ---------------
    16     17.683037  1 P  px               119     -9.801232  3 O  s          
   229      8.710771  5 O  s                 55     -5.046450  1 P  fxzz       
    50     -4.982364  1 P  fxxx              53     -4.982883  1 P  fxyy       
   129      3.689553  3 O  px               239      3.312722  5 O  px         
    35     -2.166841  1 P  dxy               17     -2.071746  1 P  py         

 Vector   32  Occ=0.000000D+00  E= 4.439494D-01
              MO Center=  1.3D-02, -3.5D-02,  1.3D+00, r^2= 1.7D+01
   Bfn.  Coefficient  Atom+Function         Bfn.  Coefficient  Atom+Function  
  ----- ------------  ---------------      ----- ------------  ---------------
    18     18.717091  1 P  pz               174    -14.710995  4 O  s          
     5      6.651993  1 P  s                186      6.072975  4 O  pz         
    52     -5.330415  1 P  fxxz              57     -5.348123  1 P  fyyz       
    59     -5.150898  1 P  fzzz              39      3.427451  1 P  dzz        
   119      2.570789  3 O  s                229      2.286391  5 O  s          

 Vector   33  Occ=0.000000D+00  E= 4.638778D-01
              MO Center=  9.1D-03, -3.4D-02, -4.9D-01, r^2= 2.0D+01
   Bfn.  Coefficient  Atom+Function         Bfn.  Coefficient  Atom+Function  
  ----- ------------  ---------------      ----- ------------  ---------------
     5     35.595994  1 P  s                  6    -16.654899  1 P  s          
    37     12.936819  1 P  dyy               34     12.865946  1 P  dxx        
    39     12.930132  1 P  dzz              174    -12.018485  4 O  s          
   119    -11.456840  3 O  s                229    -11.412618  5 O  s          
    64    -11.322528  2 O  s                 75      4.198339  2 O  py         

 Vector   34  Occ=0.000000D+00  E= 4.677367D-01
              MO Center= -3.8D-03,  2.8D-02, -3.7D-02, r^2= 1.6D+01
   Bfn.  Coefficient  Atom+Function         Bfn.  Coefficient  Atom+Function  
  ----- ------------  ---------------      ----- ------------  ---------------
    36      4.292430  1 P  dxz               35     -2.876524  1 P  dxy        
   184     -1.814717  4 O  px                74      1.617153  2 O  px         
    24      1.467141  1 P  dxz              131     -1.438620  3 O  pz         
   241      1.204871  5 O  pz               240     -1.073669  5 O  py         
    23     -0.987206  1 P  dxy              181     -0.854353  4 O  px         

 Vector   35  Occ=0.000000D+00  E= 4.679564D-01
              MO Center=  6.3D-03, -3.3D-02, -5.0D-02, r^2= 1.6D+01
   Bfn.  Coefficient  Atom+Function         Bfn.  Coefficient  Atom+Function  
  ----- ------------  ---------------      ----- ------------  ---------------
    38      4.338579  1 P  dyz               34     -1.839035  1 P  dxx        
   185     -1.813820  4 O  py                76     -1.491644  2 O  pz         
    26      1.480364  1 P  dyz                5     -1.332777  1 P  s          
   130      1.255298  3 O  py               240      1.037543  5 O  py         
   241      0.979869  5 O  pz                37      0.939218  1 P  dyy        

 Vector   36  Occ=0.000000D+00  E= 5.563872D-01
              MO Center=  2.5D-03, -1.4D-02, -5.5D-01, r^2= 1.4D+01
   Bfn.  Coefficient  Atom+Function         Bfn.  Coefficient  Atom+Function  
  ----- ------------  ---------------      ----- ------------  ---------------
    74      1.841185  2 O  px               130     -1.633994  3 O  py         
   240      1.616984  5 O  py               129     -0.961463  3 O  px         
   239     -0.960288  5 O  px                53     -0.796881  1 P  fxyy       
    90     -0.304175  2 O  dxy               71     -0.286818  2 O  px         
   237     -0.239136  5 O  py               127      0.235550  3 O  py         

 Vector   37  Occ=0.000000D+00  E= 5.577345D-01
              MO Center= -5.0D-02,  3.8D-01,  5.3D-01, r^2= 1.4D+01
   Bfn.  Coefficient  Atom+Function         Bfn.  Coefficient  Atom+Function  
  ----- ------------  ---------------      ----- ------------  ---------------
   185      2.594441  4 O  py                76     -1.909215  2 O  pz         
   241      1.005070  5 O  pz                58     -0.745660  1 P  fyzz       
   131      0.733364  3 O  pz                64     -0.696867  2 O  s          
    20     -0.673355  1 P  py                17     -0.568411  1 P  py         
   203     -0.567754  4 O  dyz               38     -0.512003  1 P  dyz        

 Vector   38  Occ=0.000000D+00  E= 5.577595D-01
              MO Center=  4.5D-02, -3.7D-01,  4.8D-01, r^2= 1.4D+01
   Bfn.  Coefficient  Atom+Function         Bfn.  Coefficient  Atom+Function  
  ----- ------------  ---------------      ----- ------------  ---------------
   184      2.535511  4 O  px               131     -1.660552  3 O  pz         
   241      1.559835  5 O  pz                55     -0.745393  1 P  fxzz       
    19     -0.599772  1 P  px               201     -0.552351  4 O  dxz        
    16     -0.547385  1 P  px               119     -0.494711  3 O  s          
   229      0.489744  5 O  s                 35     -0.466053  1 P  dxy        

 Vector   39  Occ=0.000000D+00  E= 5.614236D-01
              MO Center=  2.0D-02, -6.4D-02, -2.8D-01, r^2= 1.6D+01
   Bfn.  Coefficient  Atom+Function         Bfn.  Coefficient  Atom+Function  
  ----- ------------  ---------------      ----- ------------  ---------------
    18      5.337849  1 P  pz                21      4.101377  1 P  pz         
   186     -2.906052  4 O  pz               131     -2.871165  3 O  pz         
   241     -2.838256  5 O  pz                76     -2.775741  2 O  pz         
    59     -2.346512  1 P  fzzz             174      1.982062  4 O  s          
    57     -1.840150  1 P  fyyz              39     -1.804418  1 P  dzz        

 Vector   40  Occ=0.000000D+00  E= 5.620314D-01
              MO Center=  5.7D-02, -1.9D-01, -1.1D-01, r^2= 1.6D+01
   Bfn.  Coefficient  Atom+Function         Bfn.  Coefficient  Atom+Function  
  ----- ------------  ---------------      ----- ------------  ---------------
    17      6.384551  1 P  py                20      3.913126  1 P  py         
   130     -2.746753  3 O  py               240     -2.735519  5 O  py         
   185     -2.590891  4 O  py                75     -2.536546  2 O  py         
    51     -2.430844  1 P  fxxy              56     -2.381755  1 P  fyyy       
    58     -1.820757  1 P  fyzz              38      1.372096  1 P  dyz        

 Vector   41  Occ=0.000000D+00  E= 5.620781D-01
              MO Center= -7.4D-02,  2.6D-01, -7.9D-02, r^2= 1.6D+01
   Bfn.  Coefficient  Atom+Function         Bfn.  Coefficient  Atom+Function  
  ----- ------------  ---------------      ----- ------------  ---------------
    16      6.460804  1 P  px                19      3.930261  1 P  px         
    74     -2.838606  2 O  px               184     -2.634563  4 O  px         
   239     -2.592263  5 O  px               129     -2.556563  3 O  px         
    50     -2.416147  1 P  fxxx              53     -2.385679  1 P  fxyy       
    55     -1.845967  1 P  fxzz              54     -1.783765  1 P  fxyz       

 Vector   42  Occ=0.000000D+00  E= 5.918589D-01
              MO Center= -3.2D-03,  6.3D-03, -1.2D-01, r^2= 1.0D+01
   Bfn.  Coefficient  Atom+Function         Bfn.  Coefficient  Atom+Function  
  ----- ------------  ---------------      ----- ------------  ---------------
     5     16.283256  1 P  s                  6     10.339810  1 P  s          
   173     -4.054405  4 O  s                 34     -3.935965  1 P  dxx        
    37     -3.916866  1 P  dyy               39     -3.850136  1 P  dzz        
    63     -3.533305  2 O  s                118     -3.513896  3 O  s          
   228     -3.517902  5 O  s                183      3.295279  4 O  pz         

 Vector   43  Occ=0.000000D+00  E= 6.332205D-01
              MO Center=  4.6D-04,  4.7D-04,  1.7D-01, r^2= 1.1D+01
   Bfn.  Coefficient  Atom+Function         Bfn.  Coefficient  Atom+Function  
  ----- ------------  ---------------      ----- ------------  ---------------
   174     19.403917  4 O  s                 18    -16.597327  1 P  pz         
    64     -6.843037  2 O  s                229     -6.010533  5 O  s          
   119     -5.619459  3 O  s                 39     -5.214837  1 P  dzz        
   186     -4.881467  4 O  pz                52      4.098386  1 P  fxxz       
    57      4.006545  1 P  fyyz             173      3.235014  4 O  s          

 Vector   44  Occ=0.000000D+00  E= 6.344667D-01
              MO Center=  4.0D-02, -8.4D-02, -9.7D-02, r^2= 1.1D+01
   Bfn.  Coefficient  Atom+Function         Bfn.  Coefficient  Atom+Function  
  ----- ------------  ---------------      ----- ------------  ---------------
   119     14.713399  3 O  s                 16    -12.810583  1 P  px         
   229    -11.497491  5 O  s                 35      6.801635  1 P  dxy        
    36      5.137706  1 P  dxz              129     -3.581540  3 O  px         
   239     -3.175896  5 O  px                55      2.904156  1 P  fxzz       
    64     -2.733023  2 O  s                 54     -2.609327  1 P  fxyz       

 Vector   45  Occ=0.000000D+00  E= 6.348480D-01
              MO Center= -4.7D-02,  1.0D-01, -1.2D-01, r^2= 1.1D+01
   Bfn.  Coefficient  Atom+Function         Bfn.  Coefficient  Atom+Function  
  ----- ------------  ---------------      ----- ------------  ---------------
    64     14.993388  2 O  s                 17    -12.906111  1 P  py         
   229    -10.452316  5 O  s                119     -5.384826  3 O  s          
    38      5.039833  1 P  dyz               75     -3.939036  2 O  py         
    34      3.540764  1 P  dxx               37     -3.314878  1 P  dyy        
    58      2.955935  1 P  fyzz             240     -2.503528  5 O  py         

 Vector   46  Occ=0.000000D+00  E= 6.688270D-01
              MO Center= -7.1D-02,  2.1D-01, -1.2D-01, r^2= 1.0D+01
   Bfn.  Coefficient  Atom+Function         Bfn.  Coefficient  Atom+Function  
  ----- ------------  ---------------      ----- ------------  ---------------
    64      6.226103  2 O  s                 17     -4.763939  1 P  py         
   229     -3.946990  5 O  s                 75     -2.678534  2 O  py         
   119     -2.133676  3 O  s                 38     -1.768794  1 P  dyz        
    63     -1.737772  2 O  s                 56      1.713124  1 P  fyyy       
    51      1.672367  1 P  fxxy              34     -1.507248  1 P  dxx        

 Vector   47  Occ=0.000000D+00  E= 6.689305D-01
              MO Center=  8.0D-02, -2.3D-01, -1.5D-01, r^2= 1.0D+01
   Bfn.  Coefficient  Atom+Function         Bfn.  Coefficient  Atom+Function  
  ----- ------------  ---------------      ----- ------------  ---------------
   119      6.178920  3 O  s                 16     -5.090562  1 P  px         
   229     -5.113757  5 O  s                 35     -2.778888  1 P  dxy        
    54      2.683431  1 P  fxyz             129     -2.294453  3 O  px         
   239     -1.926279  5 O  px                50      1.759486  1 P  fxxx       
    53      1.738825  1 P  fxyy              36     -1.728587  1 P  dxz        

 Vector   48  Occ=0.000000D+00  E= 6.730967D-01
              MO Center=  1.5D-03, -4.1D-03,  2.0D-01, r^2= 1.0D+01
   Bfn.  Coefficient  Atom+Function         Bfn.  Coefficient  Atom+Function  
  ----- ------------  ---------------      ----- ------------  ---------------
   174      5.968951  4 O  s                 18     -4.519070  1 P  pz         
   186     -2.967377  4 O  pz                39      2.897541  1 P  dzz        
   119     -2.867870  3 O  s                229     -2.842446  5 O  s          
    64     -2.799343  2 O  s                173     -2.029963  4 O  s          
    59      2.017869  1 P  fzzz              51      1.272262  1 P  fxxy       

 Vector   49  Occ=0.000000D+00  E= 7.163192D-01
              MO Center= -1.4D-03,  2.0D-03,  6.6D-02, r^2= 1.0D+01
   Bfn.  Coefficient  Atom+Function         Bfn.  Coefficient  Atom+Function  
  ----- ------------  ---------------      ----- ------------  ---------------
     5     32.981511  1 P  s                174    -22.087289  4 O  s          
    39     17.111350  1 P  dzz               34     16.033049  1 P  dxx        
    37     16.054936  1 P  dyy               64    -16.107712  2 O  s          
   119    -16.064446  3 O  s                229    -16.063516  5 O  s          
     6    -11.877043  1 P  s                186      5.202909  4 O  pz         

 Vector   50  Occ=0.000000D+00  E= 7.556333D-01
              MO Center= -1.2D-02,  1.3D-02, -5.3D-01, r^2= 5.7D+00
   Bfn.  Coefficient  Atom+Function         Bfn.  Coefficient  Atom+Function  
  ----- ------------  ---------------      ----- ------------  ---------------
     5     22.384815  1 P  s                 64    -10.982242  2 O  s          
   229    -10.909634  5 O  s                119    -10.699472  3 O  s          
    37      6.994576  1 P  dyy               34      6.927442  1 P  dxx        
   174     -5.544028  4 O  s                 39      4.798493  1 P  dzz        
    18     -4.610301  1 P  pz                75      2.093140  2 O  py         

 Vector   51  Occ=0.000000D+00  E= 7.626985D-01
              MO Center= -1.7D-01,  2.6D-03,  3.8D-02, r^2= 4.6D+00
   Bfn.  Coefficient  Atom+Function         Bfn.  Coefficient  Atom+Function  
  ----- ------------  ---------------      ----- ------------  ---------------
   119     10.592424  3 O  s                 17     10.435215  1 P  py         
    16     -8.770366  1 P  px                64     -8.040540  2 O  s          
    38     -3.377959  1 P  dyz               36      2.940382  1 P  dxz        
    35      2.920183  1 P  dxy               58     -2.788318  1 P  fyzz       
    55      2.313415  1 P  fxzz             118      2.307188  3 O  s          

 Vector   52  Occ=0.000000D+00  E= 7.627950D-01
              MO Center=  1.6D-01,  3.9D-02,  3.7D-02, r^2= 4.6D+00
   Bfn.  Coefficient  Atom+Function         Bfn.  Coefficient  Atom+Function  
  ----- ------------  ---------------      ----- ------------  ---------------
   229     10.810542  5 O  s                 16     10.421551  1 P  px         
    17      8.865674  1 P  py                64     -7.062388  2 O  s          
   119     -3.652842  3 O  s                 35     -3.495876  1 P  dxy        
    36     -3.449534  1 P  dxz               38     -2.830705  1 P  dyz        
    55     -2.757920  1 P  fxzz             228      2.416442  5 O  s          

 Vector   53  Occ=0.000000D+00  E= 7.703829D-01
              MO Center=  4.5D-03, -1.8D-02,  2.9D-01, r^2= 5.5D+00
   Bfn.  Coefficient  Atom+Function         Bfn.  Coefficient  Atom+Function  
  ----- ------------  ---------------      ----- ------------  ---------------
    18     21.856583  1 P  pz               174    -17.555441  4 O  s          
     5     10.547778  1 P  s                 52     -6.722731  1 P  fxxz       
    57     -6.528195  1 P  fyyz              59     -4.911090  1 P  fzzz       
    39      4.632437  1 P  dzz              173     -4.079540  4 O  s          
   186      3.713579  4 O  pz                64      3.029389  2 O  s          

 Vector   54  Occ=0.000000D+00  E= 7.770126D-01
              MO Center= -7.3D-02,  1.5D-01,  2.6D-01, r^2= 9.3D+00
   Bfn.  Coefficient  Atom+Function         Bfn.  Coefficient  Atom+Function  
  ----- ------------  ---------------      ----- ------------  ---------------
    38      6.523041  1 P  dyz               17      6.134045  1 P  py         
    34     -2.712611  1 P  dxx               37      2.577155  1 P  dyy        
    64     -2.396787  2 O  s                 58     -2.089723  1 P  fyzz       
    56     -1.931291  1 P  fyyy              51     -1.913206  1 P  fxxy       
   182     -1.873549  4 O  py                26      1.835704  1 P  dyz        

 Vector   55  Occ=0.000000D+00  E= 7.773081D-01
              MO Center=  8.1D-02, -1.7D-01,  2.4D-01, r^2= 9.3D+00
   Bfn.  Coefficient  Atom+Function         Bfn.  Coefficient  Atom+Function  
  ----- ------------  ---------------      ----- ------------  ---------------
    36      6.450744  1 P  dxz               16      5.797280  1 P  px         
    35     -5.457612  1 P  dxy              119     -2.320752  3 O  s          
    55     -1.961721  1 P  fxzz             181     -1.881703  4 O  px         
    24      1.828929  1 P  dxz              229      1.801393  5 O  s          
    50     -1.786599  1 P  fxxx              53     -1.782668  1 P  fxyy       

 Vector   56  Occ=0.000000D+00  E= 7.988712D-01
              MO Center=  3.2D-02, -9.0D-02, -3.5D-01, r^2= 9.4D+00
   Bfn.  Coefficient  Atom+Function         Bfn.  Coefficient  Atom+Function  
  ----- ------------  ---------------      ----- ------------  ---------------
    17     30.887412  1 P  py                64    -11.185560  2 O  s          
    51    -10.096160  1 P  fxxy              56    -10.092339  1 P  fyyy       
    58    -10.101984  1 P  fyzz             229      7.938616  5 O  s          
    16      6.726539  1 P  px               119      3.666224  3 O  s          
    38     -3.523550  1 P  dyz               75      2.222429  2 O  py         

 Vector   57  Occ=0.000000D+00  E= 7.990018D-01
              MO Center= -2.3D-02,  6.2D-02, -3.2D-01, r^2= 9.5D+00
   Bfn.  Coefficient  Atom+Function         Bfn.  Coefficient  Atom+Function  
  ----- ------------  ---------------      ----- ------------  ---------------
    16     31.064939  1 P  px               119    -11.197173  3 O  s          
    50    -10.139136  1 P  fxxx              53    -10.142789  1 P  fxyy       
    55    -10.149295  1 P  fxzz             229      8.554041  5 O  s          
    17     -6.718922  1 P  py                36     -3.470667  1 P  dxz        
    35     -2.410667  1 P  dxy               64      2.378963  2 O  s          

 Vector   58  Occ=0.000000D+00  E= 8.071050D-01
              MO Center=  1.8D-03, -5.9D-03,  3.8D-03, r^2= 8.5D+00
   Bfn.  Coefficient  Atom+Function         Bfn.  Coefficient  Atom+Function  
  ----- ------------  ---------------      ----- ------------  ---------------
    18     29.800653  1 P  pz               174    -10.849733  4 O  s          
    59    -10.035492  1 P  fzzz              52     -9.853881  1 P  fxxz       
    57     -9.858280  1 P  fyyz              64      4.529757  2 O  s          
   229      4.220264  5 O  s                119      4.053426  3 O  s          
   186      2.213853  4 O  pz                42     -1.912929  1 P  fxxz       

 Vector   59  Occ=0.000000D+00  E= 9.481151D-01
              MO Center= -9.3D-04,  1.8D-03, -2.6D-02, r^2= 8.0D+00
   Bfn.  Coefficient  Atom+Function         Bfn.  Coefficient  Atom+Function  
  ----- ------------  ---------------      ----- ------------  ---------------
     5     25.999979  1 P  s                 39    -15.108043  1 P  dzz        
    34    -14.573901  1 P  dxx               37    -14.589487  1 P  dyy        
   174     13.283749  4 O  s                  6     12.578467  1 P  s          
   173    -12.597860  4 O  s                 63    -11.723264  2 O  s          
   118    -11.703582  3 O  s                228    -11.706633  5 O  s          

 Vector   60  Occ=0.000000D+00  E= 9.751405D-01
              MO Center= -3.0D-04,  1.9D-03,  2.7D-02, r^2= 4.9D+00
   Bfn.  Coefficient  Atom+Function         Bfn.  Coefficient  Atom+Function  
  ----- ------------  ---------------      ----- ------------  ---------------
    26      2.083326  1 P  dyz               38      1.907750  1 P  dyz        
   203      1.354405  4 O  dyz               93      0.789160  2 O  dyz        
    34     -0.784529  1 P  dxx              144     -0.726619  3 O  dxx        
   254     -0.726778  5 O  dxx               22     -0.703244  1 P  dxx        
    25      0.654958  1 P  dyy              182     -0.643521  4 O  py         

 Vector   61  Occ=0.000000D+00  E= 9.755876D-01
              MO Center=  3.9D-04, -1.4D-03,  2.6D-02, r^2= 4.9D+00
   Bfn.  Coefficient  Atom+Function         Bfn.  Coefficient  Atom+Function  
  ----- ------------  ---------------      ----- ------------  ---------------
    24      2.086514  1 P  dxz               36      1.882708  1 P  dxz        
    90     -1.381608  2 O  dxy               23     -1.366611  1 P  dxy        
   201      1.370243  4 O  dxz               35     -1.287065  1 P  dxy        
    71      0.656292  2 O  px               181     -0.644426  4 O  px         
   146      0.627518  3 O  dxz              184     -0.623178  4 O  px         

 Vector   62  Occ=0.000000D+00  E= 1.055793D+00
              MO Center=  1.5D-04, -6.2D-03,  4.4D-03, r^2= 6.1D+00
   Bfn.  Coefficient  Atom+Function         Bfn.  Coefficient  Atom+Function  
  ----- ------------  ---------------      ----- ------------  ---------------
    54      7.488303  1 P  fxyz              35     -3.911652  1 P  dxy        
    23     -3.614228  1 P  dxy               24     -3.092006  1 P  dxz        
    36     -2.858442  1 P  dxz              118     -2.819914  3 O  s          
   228      2.709693  5 O  s                181      1.826259  4 O  px         
    16     -1.646404  1 P  px               201     -1.651057  4 O  dxz        

 Vector   63  Occ=0.000000D+00  E= 1.056010D+00
              MO Center=  6.7D-05,  5.6D-03,  1.0D-02, r^2= 6.1D+00
   Bfn.  Coefficient  Atom+Function         Bfn.  Coefficient  Atom+Function  
  ----- ------------  ---------------      ----- ------------  ---------------
    52      3.703947  1 P  fxxz              57     -3.637552  1 P  fyyz       
    63     -3.213900  2 O  s                 26     -3.056421  1 P  dyz        
    38     -2.830301  1 P  dyz               37      2.015682  1 P  dyy        
    34     -1.979278  1 P  dxx               25      1.849426  1 P  dyy        
   182      1.821490  4 O  py                22     -1.805078  1 P  dxx        

 Vector   64  Occ=0.000000D+00  E= 1.071542D+00
              MO Center= -2.0D-03,  5.8D-03,  2.3D-03, r^2= 6.1D+00
   Bfn.  Coefficient  Atom+Function         Bfn.  Coefficient  Atom+Function  
  ----- ------------  ---------------      ----- ------------  ---------------
   173      4.432280  4 O  s                 51     -3.556954  1 P  fxxy       
    27     -2.879383  1 P  dzz               39     -2.721804  1 P  dzz        
    57      2.560221  1 P  fyyz              52      2.467890  1 P  fxxz       
    34      2.173853  1 P  dxx               37      2.144633  1 P  dyy        
    22      1.552882  1 P  dxx               25      1.550674  1 P  dyy        

 Vector   65  Occ=0.000000D+00  E= 1.100890D+00
              MO Center= -1.2D-01,  3.4D-01,  1.2D-01, r^2= 7.6D+00
   Bfn.  Coefficient  Atom+Function         Bfn.  Coefficient  Atom+Function  
  ----- ------------  ---------------      ----- ------------  ---------------
    58      3.681028  1 P  fyzz             203      1.764700  4 O  dyz        
    93     -1.349599  2 O  dyz               57     -1.275497  1 P  fyyz       
    52      1.162453  1 P  fxxz              76      1.163331  2 O  pz         
   185     -1.152240  4 O  py                17     -0.931991  1 P  py         
   256     -0.832612  5 O  dxz              241     -0.749938  5 O  pz         

 Vector   66  Occ=0.000000D+00  E= 1.100973D+00
              MO Center=  1.1D-01, -3.2D-01,  1.0D-01, r^2= 7.6D+00
   Bfn.  Coefficient  Atom+Function         Bfn.  Coefficient  Atom+Function  
  ----- ------------  ---------------      ----- ------------  ---------------
    55      3.690261  1 P  fxzz              54      2.273021  1 P  fxyz       
   201      1.758073  4 O  dxz              184     -1.154765  4 O  px         
   131      1.102417  3 O  pz               146     -1.072188  3 O  dxz        
   241     -0.906762  5 O  pz               256     -0.854898  5 O  dxz        
    16     -0.847689  1 P  px               148      0.666090  3 O  dyz        

 Vector   67  Occ=0.000000D+00  E= 1.102247D+00
              MO Center=  2.2D-03, -1.6D-02, -3.8D-01, r^2= 7.5D+00
   Bfn.  Coefficient  Atom+Function         Bfn.  Coefficient  Atom+Function  
  ----- ------------  ---------------      ----- ------------  ---------------
    53      2.984134  1 P  fxyy              90      1.363733  2 O  dxy        
    74     -1.069014  2 O  px                50     -1.029782  1 P  fxxx       
   130      0.953683  3 O  py               240     -0.941839  5 O  py         
   145     -0.688387  3 O  dxy              255     -0.678513  5 O  dxy        
   144     -0.622847  3 O  dxx              254      0.624574  5 O  dxx        

 Vector   68  Occ=0.000000D+00  E= 1.128961D+00
              MO Center= -5.9D-02,  5.5D-02, -4.5D-02, r^2= 8.6D+00
   Bfn.  Coefficient  Atom+Function         Bfn.  Coefficient  Atom+Function  
  ----- ------------  ---------------      ----- ------------  ---------------
   119      5.643170  3 O  s                 16     -4.576203  1 P  px         
   229     -2.594944  5 O  s                 35      2.415575  1 P  dxy        
    17      2.120682  1 P  py                18      1.918242  1 P  pz         
    64     -1.790574  2 O  s                 36      1.774014  1 P  dxz        
   174     -1.573285  4 O  s                 19     -1.429734  1 P  px         

 Vector   69  Occ=0.000000D+00  E= 1.129006D+00
              MO Center=  7.4D-02, -9.1D-02, -5.1D-02, r^2= 8.6D+00
   Bfn.  Coefficient  Atom+Function         Bfn.  Coefficient  Atom+Function  
  ----- ------------  ---------------      ----- ------------  ---------------
   229      4.914408  5 O  s                 17      4.439671  1 P  py         
    64     -4.096990  2 O  s                 16      2.338376  1 P  px         
    18      2.319130  1 P  pz               174     -1.901513  4 O  s          
    38     -1.684596  1 P  dyz               20      1.378396  1 P  py         
    34     -1.317593  1 P  dxx               63     -1.243625  2 O  s          

 Vector   70  Occ=0.000000D+00  E= 1.129354D+00
              MO Center= -1.5D-02,  3.3D-02, -2.7D-01, r^2= 8.6D+00
   Bfn.  Coefficient  Atom+Function         Bfn.  Coefficient  Atom+Function  
  ----- ------------  ---------------      ----- ------------  ---------------
    18      9.080415  1 P  pz               174     -7.397213  4 O  s          
     5      4.858324  1 P  s                 64      3.725123  2 O  s          
    52     -2.705579  1 P  fxxz              39      2.667171  1 P  dzz        
   173     -2.679807  4 O  s                 57     -2.596541  1 P  fyyz       
    17     -1.675898  1 P  py               229      1.589940  5 O  s          

 Vector   71  Occ=0.000000D+00  E= 1.130802D+00
              MO Center= -1.2D-02,  3.4D-02, -4.8D-01, r^2= 5.2D+00
   Bfn.  Coefficient  Atom+Function         Bfn.  Coefficient  Atom+Function  
  ----- ------------  ---------------      ----- ------------  ---------------
    53      1.654955  1 P  fxyy              91      0.921217  2 O  dxz        
    71     -0.805670  2 O  px               258      0.751407  5 O  dyz        
   148     -0.746828  3 O  dyz              127      0.694026  3 O  py         
   237     -0.685819  5 O  py                50     -0.522166  1 P  fxxx       
   256     -0.484189  5 O  dxz              146     -0.465076  3 O  dxz        

 Vector   72  Occ=0.000000D+00  E= 1.135554D+00
              MO Center=  8.9D-02, -3.4D-01,  4.7D-02, r^2= 5.2D+00
   Bfn.  Coefficient  Atom+Function         Bfn.  Coefficient  Atom+Function  
  ----- ------------  ---------------      ----- ------------  ---------------
    55      1.630715  1 P  fxzz              54      1.327508  1 P  fxyz       
   181     -0.822825  4 O  px               200      0.801556  4 O  dxy        
   128      0.710174  3 O  pz               238     -0.607266  5 O  pz         
   145     -0.556644  3 O  dxy               50     -0.466682  1 P  fxxx       
   255     -0.449338  5 O  dxy              258      0.398242  5 O  dyz        

 Vector   73  Occ=0.000000D+00  E= 1.135972D+00
              MO Center= -8.2D-02,  3.1D-01,  4.0D-02, r^2= 5.2D+00
   Bfn.  Coefficient  Atom+Function         Bfn.  Coefficient  Atom+Function  
  ----- ------------  ---------------      ----- ------------  ---------------
    58      1.663346  1 P  fyzz             182     -0.848012  4 O  py         
    73      0.767718  2 O  pz                57     -0.733975  1 P  fyyz       
    52      0.614519  1 P  fxxz              89     -0.472253  2 O  dxx        
   238     -0.465636  5 O  pz                93      0.448580  2 O  dyz        
    56     -0.436981  1 P  fyyy              51     -0.427373  1 P  fxxy       

 Vector   74  Occ=0.000000D+00  E= 1.162352D+00
              MO Center=  8.9D-04, -2.3D-02,  1.0D-01, r^2= 5.2D+00
   Bfn.  Coefficient  Atom+Function         Bfn.  Coefficient  Atom+Function  
  ----- ------------  ---------------      ----- ------------  ---------------
    38      2.490646  1 P  dyz               64      2.031245  2 O  s          
   229     -1.431980  5 O  s                 26     -1.370048  1 P  dyz        
    63      1.167869  2 O  s                 72     -1.119469  2 O  py         
    25     -1.022258  1 P  dyy                5     -1.013013  1 P  s          
    58     -0.978314  1 P  fyzz              56     -0.959792  1 P  fyyy       

 Vector   75  Occ=0.000000D+00  E= 1.162660D+00
              MO Center=  5.9D-03,  3.0D-03,  9.2D-02, r^2= 5.1D+00
   Bfn.  Coefficient  Atom+Function         Bfn.  Coefficient  Atom+Function  
  ----- ------------  ---------------      ----- ------------  ---------------
    36      2.420940  1 P  dxz              119      1.976556  3 O  s          
    23      1.708598  1 P  dxy              229     -1.583148  5 O  s          
    24     -1.366022  1 P  dxz               71      1.082135  2 O  px         
   237     -0.987094  5 O  py                55     -0.878785  1 P  fxzz       
   228     -0.789185  5 O  s                 53     -0.772756  1 P  fxyy       

 Vector   76  Occ=0.000000D+00  E= 1.168405D+00
              MO Center= -1.4D-02,  4.5D-02, -1.1D-01, r^2= 7.1D+00
   Bfn.  Coefficient  Atom+Function         Bfn.  Coefficient  Atom+Function  
  ----- ------------  ---------------      ----- ------------  ---------------
     5     19.710269  1 P  s                173     -9.036821  4 O  s          
   118     -7.373414  3 O  s                228     -7.285960  5 O  s          
    63     -7.117499  2 O  s                 51     -6.415498  1 P  fxxy       
     6     -4.813186  1 P  s                 64      4.209180  2 O  s          
   183      3.979273  4 O  pz                52     -3.941696  1 P  fxxz       

 Vector   77  Occ=0.000000D+00  E= 1.171839D+00
              MO Center= -1.6D-01,  3.0D-01, -3.2D-01, r^2= 6.9D+00
   Bfn.  Coefficient  Atom+Function         Bfn.  Coefficient  Atom+Function  
  ----- ------------  ---------------      ----- ------------  ---------------
    64      6.950835  2 O  s                229     -4.931702  5 O  s          
    56     -3.012992  1 P  fyyy              63      2.938653  2 O  s          
    72     -2.333716  2 O  py                58     -2.307974  1 P  fyzz       
    75     -2.248426  2 O  py                17      2.225938  1 P  py         
    51     -2.164308  1 P  fxxy              26      1.876124  1 P  dyz        

 Vector   78  Occ=0.000000D+00  E= 1.171991D+00
              MO Center=  1.5D-01, -3.0D-01, -3.2D-01, r^2= 6.9D+00
   Bfn.  Coefficient  Atom+Function         Bfn.  Coefficient  Atom+Function  
  ----- ------------  ---------------      ----- ------------  ---------------
   119      6.852364  3 O  s                229     -5.224440  5 O  s          
    50     -2.814038  1 P  fxxx              53     -2.805833  1 P  fxyy       
    55     -2.347449  1 P  fxzz              16      2.222947  1 P  px         
   228     -2.186788  5 O  s                129     -2.069356  3 O  px         
   239     -1.920115  5 O  px                24      1.884104  1 P  dxz        

 Vector   79  Occ=0.000000D+00  E= 1.173965D+00
              MO Center=  2.6D-02, -5.3D-02,  7.9D-01, r^2= 6.6D+00
   Bfn.  Coefficient  Atom+Function         Bfn.  Coefficient  Atom+Function  
  ----- ------------  ---------------      ----- ------------  ---------------
   174     10.811638  4 O  s                  5      9.751079  1 P  s          
   118     -5.028396  3 O  s                228     -4.845039  5 O  s          
    63     -4.558571  2 O  s                 51     -4.520904  1 P  fxxy       
   119     -3.123912  3 O  s                 52     -3.059232  1 P  fxxz       
    57     -2.887044  1 P  fyyz              22      2.803786  1 P  dxx        

 Vector   80  Occ=0.000000D+00  E= 1.235897D+00
              MO Center=  8.3D-05, -9.1D-03, -2.3D-03, r^2= 6.7D+00
   Bfn.  Coefficient  Atom+Function         Bfn.  Coefficient  Atom+Function  
  ----- ------------  ---------------      ----- ------------  ---------------
    36      4.053613  1 P  dxz               35     -2.880045  1 P  dxy        
   181     -1.187239  4 O  px                91     -1.164431  2 O  dxz        
    71      1.137532  2 O  px                16      1.070104  1 P  px         
   128     -1.036850  3 O  pz                24     -0.970021  1 P  dxz        
   256     -0.955311  5 O  dxz              200      0.939026  4 O  dxy        

 Vector   81  Occ=0.000000D+00  E= 1.236466D+00
              MO Center= -2.2D-04,  1.0D-02,  6.6D-03, r^2= 6.7D+00
   Bfn.  Coefficient  Atom+Function         Bfn.  Coefficient  Atom+Function  
  ----- ------------  ---------------      ----- ------------  ---------------
    38      4.039608  1 P  dyz               37      1.453305  1 P  dyy        
    34     -1.363414  1 P  dxx               17      1.296315  1 P  py         
   182     -1.184220  4 O  py               148     -1.120571  3 O  dyz        
    73     -1.088914  2 O  pz               258     -1.076194  5 O  dyz        
    26     -0.940193  1 P  dyz              203     -0.883531  4 O  dyz        

 Vector   82  Occ=0.000000D+00  E= 1.261282D+00
              MO Center= -2.8D-04,  1.1D-03,  4.8D-01, r^2= 8.1D+00
   Bfn.  Coefficient  Atom+Function         Bfn.  Coefficient  Atom+Function  
  ----- ------------  ---------------      ----- ------------  ---------------
     5     42.702450  1 P  s                 18     24.961257  1 P  pz         
   174    -24.466059  4 O  s                 52    -13.150078  1 P  fxxz       
    57    -13.156430  1 P  fyyz             173     -9.555335  4 O  s          
    39      9.473454  1 P  dzz               64     -6.676702  2 O  s          
   183      6.547753  4 O  pz               229     -6.281337  5 O  s          

 Vector   83  Occ=0.000000D+00  E= 1.270384D+00
              MO Center= -4.6D-02,  9.1D-02, -2.6D-01, r^2= 8.1D+00
   Bfn.  Coefficient  Atom+Function         Bfn.  Coefficient  Atom+Function  
  ----- ------------  ---------------      ----- ------------  ---------------
    17     38.962176  1 P  py                64    -14.814038  2 O  s          
    58    -14.716282  1 P  fyzz              56    -13.401742  1 P  fyyy       
   229     12.455300  5 O  s                 51    -11.653040  1 P  fxxy       
   119     10.578382  3 O  s                  5     -6.790378  1 P  s          
    18      5.855769  1 P  pz                38     -4.665442  1 P  dyz        

 Vector   84  Occ=0.000000D+00  E= 1.270709D+00
              MO Center=  1.5D-01, -2.9D-01, -2.6D-01, r^2= 8.0D+00
   Bfn.  Coefficient  Atom+Function         Bfn.  Coefficient  Atom+Function  
  ----- ------------  ---------------      ----- ------------  ---------------
    16     39.622568  1 P  px               119    -17.660155  3 O  s          
    55    -14.928534  1 P  fxzz              50    -13.207345  1 P  fxxx       
    53    -13.262426  1 P  fxyy             229     13.150372  5 O  s          
    35     -6.024801  1 P  dxy               54      5.475378  1 P  fxyz       
     5      4.745346  1 P  s                 36     -4.760351  1 P  dxz        

 Vector   85  Occ=0.000000D+00  E= 1.271307D+00
              MO Center= -1.1D-01,  1.9D-01, -2.7D-01, r^2= 8.0D+00
   Bfn.  Coefficient  Atom+Function         Bfn.  Coefficient  Atom+Function  
  ----- ------------  ---------------      ----- ------------  ---------------
     5     29.844177  1 P  s                 18    -29.640863  1 P  pz         
    64    -16.606376  2 O  s                229    -13.139456  5 O  s          
    59     11.477385  1 P  fzzz              51     -9.223788  1 P  fxxy       
    52      8.990219  1 P  fxxz             119     -8.850840  3 O  s          
    17      8.576140  1 P  py                57      7.970777  1 P  fyyz       

 Vector   86  Occ=0.000000D+00  E= 1.275610D+00
              MO Center= -5.5D-02,  5.2D-02, -6.8D-02, r^2= 6.3D+00
   Bfn.  Coefficient  Atom+Function         Bfn.  Coefficient  Atom+Function  
  ----- ------------  ---------------      ----- ------------  ---------------
[...]
   Bfn.  Coefficient  Atom+Function         Bfn.  Coefficient  Atom+Function  
  ----- ------------  ---------------      ----- ------------  ---------------
   123      8.190628  3 O  px               233      8.019724  5 O  px         
   126      6.611352  3 O  px               236      6.443709  5 O  px         
    10      6.315639  1 P  px               237      5.656181  5 O  py         
   234      5.584781  5 O  py                54     -5.288911  1 P  fxyz       
   124     -5.157954  3 O  py                55      5.001339  1 P  fxzz       

 Vector  274  Occ=0.000000D+00  E= 1.700900D+01
              MO Center=  1.2D-04, -5.0D-04, -3.4D-02, r^2= 3.8D+00
   Bfn.  Coefficient  Atom+Function         Bfn.  Coefficient  Atom+Function  
  ----- ------------  ---------------      ----- ------------  ---------------
     5     48.790001  1 P  s                183     18.395245  4 O  pz         
    63    -17.355938  2 O  s                 72     17.387531  2 O  py         
   118    -17.356598  3 O  s                173    -17.353236  4 O  s          
   228    -17.357322  5 O  s                126     15.011806  3 O  px         
   236    -15.045678  5 O  px                22      9.357985  1 P  dxx        

 Vector  275  Occ=0.000000D+00  E= 1.744274D+01
              MO Center=  2.1D-02, -2.6D-02,  1.7D-03, r^2= 2.9D+00
   Bfn.  Coefficient  Atom+Function         Bfn.  Coefficient  Atom+Function  
  ----- ------------  ---------------      ----- ------------  ---------------
   173      6.679730  4 O  s                118     -6.568561  3 O  s          
   228     -6.351619  5 O  s                 63      6.232846  2 O  s          
    57      3.517581  1 P  fyyz             171      3.269279  4 O  s          
   116     -3.213500  3 O  s                180      3.215799  4 O  pz         
    58      3.109470  1 P  fyzz             226     -3.107608  5 O  s          

 Vector  276  Occ=0.000000D+00  E= 1.744343D+01
              MO Center= -2.9D-02,  1.6D-01,  3.7D-02, r^2= 2.9D+00
   Bfn.  Coefficient  Atom+Function         Bfn.  Coefficient  Atom+Function  
  ----- ------------  ---------------      ----- ------------  ---------------
    63      7.226766  2 O  s                173     -6.883307  4 O  s          
   228     -5.972754  5 O  s                118      5.634228  3 O  s          
    61      3.532024  2 O  s                 69      3.367221  2 O  py         
   171     -3.365863  4 O  s                180     -3.324102  4 O  pz         
    72      3.304524  2 O  py               183     -3.155065  4 O  pz         

 Vector  277  Occ=0.000000D+00  E= 1.744368D+01
              MO Center=  8.8D-03, -1.4D-01, -1.4D-01, r^2= 2.9D+00
   Bfn.  Coefficient  Atom+Function         Bfn.  Coefficient  Atom+Function  
  ----- ------------  ---------------      ----- ------------  ---------------
   118      7.098808  3 O  s                228     -7.019408  5 O  s          
    63     -5.846977  2 O  s                173      5.761977  4 O  s          
   116      3.469668  3 O  s                226     -3.427881  5 O  s          
    55      2.964699  1 P  fxzz             138     -2.893245  3 O  dxx        
   141     -2.887370  3 O  dyy               61     -2.855677  2 O  s          

 Vector  278  Occ=0.000000D+00  E= 1.779370D+01
              MO Center=  8.4D-05, -4.9D-04, -3.4D-02, r^2= 3.1D+00
   Bfn.  Coefficient  Atom+Function         Bfn.  Coefficient  Atom+Function  
  ----- ------------  ---------------      ----- ------------  ---------------
     5     40.458994  1 P  s                183     16.945696  4 O  pz         
     3     16.372514  1 P  s                 72     16.020113  2 O  py         
   126     13.829063  3 O  px               236    -13.860875  5 O  px         
     2     11.159647  1 P  s                204     -8.529957  4 O  dzz        
    63     -8.301738  2 O  s                118     -8.306452  3 O  s          

 Vector  279  Occ=0.000000D+00  E= 1.925601D+01
              MO Center=  2.6D-04, -8.5D-04, -3.4D-02, r^2= 4.2D+00
   Bfn.  Coefficient  Atom+Function         Bfn.  Coefficient  Atom+Function  
  ----- ------------  ---------------      ----- ------------  ---------------
     3     40.989039  1 P  s                  5    -34.511796  1 P  s          
     2     27.705254  1 P  s                  4     -7.430649  1 P  s          
    64     -7.324349  2 O  s                119     -7.325475  3 O  s          
   174     -7.324001  4 O  s                229     -7.325375  5 O  s          
    34      6.758093  1 P  dxx               37      6.759902  1 P  dyy        


 center of mass
 --------------
 x =   0.00034327 y =  -0.00122259 z =  -0.06364515

 moments of inertia (a.u.)
 ------------------
         394.267595642328           0.020993480318          -0.038389046793
           0.020993480318         394.412779284508           0.142063117894
          -0.038389046793           0.142063117894         394.324192758910

     Multipole analysis of the density
     ---------------------------------

     L   x y z        total         alpha         beta         nuclear
     -   - - -        -----         -----         ----         -------
     0   0 0 0     -3.000000    -25.000000    -25.000000     47.000000

     1   1 0 0     -0.000991     -0.008571     -0.008571      0.016151
     1   0 1 0      0.003258      0.030368      0.030368     -0.057478
     1   0 0 1      0.190487      1.590886      1.590886     -2.991284

     2   2 0 0    -53.428088    -76.038410    -76.038410     98.648732
     2   1 1 0     -0.000206      0.005157      0.005157     -0.010520
     2   1 0 1      0.000997     -0.008588     -0.008588      0.018173
     2   0 2 0    -53.432476    -76.004329    -76.004329     98.576182
     2   0 1 1     -0.002308      0.032544      0.032544     -0.067396
     2   0 0 2    -53.446203    -76.128500    -76.128500     98.810797

 Line search: 
     step= 1.00 grad=-3.7D-07 hess= 8.0D-08 energy=   -641.684678 mode=accept  
 new step= 1.00                   predicted energy=   -641.684678

          --------
          Step   5
          --------


                         Geometry "geometry" -> "geometry"
                         ---------------------------------

 Output coordinates in angstroms (scale by  1.889725989 to convert to a.u.)

  No.       Tag          Charge          X              Y              Z
 ---- ---------------- ---------- -------------- -------------- --------------
    1 P                   15.0000     0.00016271    -0.00062972    -0.03371994
    2 O                    8.0000    -0.00147621     1.52022332    -0.55910011
    3 O                    8.0000     1.31267574    -0.75474270    -0.57897002
    4 O                    8.0000     0.00482597    -0.01336791     1.57534523
    5 O                    8.0000    -1.31526221    -0.75473398    -0.57191515

      Atomic Mass 
      ----------- 

      P                 30.973760
      O                 15.994910


 Effective nuclear repulsion energy (a.u.)     235.2016965353

            Nuclear Dipole moment (a.u.) 
            ----------------------------
        X                 Y               Z
 ---------------- ---------------- ----------------
     0.0161514374    -0.0574779696    -2.9912843096


                                 NWChem DFT Module
                                 -----------------




 Summary of "ao basis" -> "ao basis" (cartesian)
 ------------------------------------------------------------------------------
       Tag                 Description            Shells   Functions and Types
 ---------------- ------------------------------  ------  ---------------------
 P                        aug-cc-pVTZ               16       59   6s5p3d2f
 O                        aug-cc-pVTZ               14       55   5s4p3d2f



  The DFT is already converged 

         Total DFT energy =   -641.684677619465


            General Information
            -------------------
          SCF calculation type: DFT
          Wavefunction type:  closed shell.
          No. of atoms     :     5
          No. of electrons :    50
           Alpha electrons :    25
            Beta electrons :    25
          Charge           :    -3
          Spin multiplicity:     1
          Use of symmetry is: off; symmetry adaption is: off
          Maximum number of iterations: 100
          AO basis - number of functions:   279
                     number of shells:    72
          Convergence on energy requested:  1.00D-06
          Convergence on density requested:  1.00D-05
          Convergence on gradient requested:  5.00D-04

              XC Information
              --------------
          PerdewBurkeErnzerhof Exchange Functional  1.000          
            Perdew 1991 LDA Correlation Functional  1.000 local    
           PerdewBurkeErnz. Correlation Functional  1.000 non-local

             Grid Information
             ----------------
          Grid used for XC integration:  medium    
          Radial quadrature: Mura-Knowles        
          Angular quadrature: Lebedev. 
          Tag              B.-S. Rad. Rad. Pts. Rad. Cut. Ang. Pts.
          ---              ---------- --------- --------- ---------
          P                   1.00       88          10.0       590
          O                   0.60       49          11.0       434
          Grid pruning is: on 
          Number of quadrature shells:   284
          Spatial weights used:  Erf1

          Convergence Information
          -----------------------
          Convergence aids based upon iterative change in 
          total energy or number of iterations. 
          Levelshifting, if invoked, occurs when the 
          HOMO/LUMO gap drops below (HL_TOL):  1.00D-02
          DIIS, if invoked, will attempt to extrapolate 
          using up to (NFOCK): 10 stored Fock matrices.

                    Damping(40%)  Levelshifting(0.0)       DIIS
                  --------------- ------------------- ---------------
          dE  on:    start            ASAP                start   
          dE off:  100 iters        100 iters           100 iters 


      Screening Tolerance Information
      -------------------------------
          Density screening/tol_rho:  1.00D-10
          AO Gaussian exp screening on grid/accAOfunc:  14
          CD Gaussian exp screening on grid/accCDfunc:  20
          XC Gaussian exp screening on grid/accXCfunc:  20
          Schwarz screening/accCoul:  1.00D-08



                            NWChem DFT Gradient Module
                            --------------------------



  charge          =  -3.00
  wavefunction    = closed shell



                         DFT ENERGY GRADIENTS

    atom               coordinates                        gradient
                 x          y          z           x          y          z
   1 P       0.000307  -0.001190  -0.063721   -0.000004  -0.000026  -0.000055
   2 O      -0.002790   2.872806  -1.056546   -0.000007   0.000004  -0.000047
   3 O       2.480597  -1.426257  -1.094095   -0.000021   0.000032   0.000040
   4 O       0.009120  -0.025262   2.976971    0.000014  -0.000048   0.000043
   5 O      -2.485485  -1.426240  -1.080763    0.000018   0.000037   0.000019

                 ----------------------------------------
                 |  Time  |  1-e(secs)   |  2-e(secs)   |
                 ----------------------------------------
                 |  CPU   |       0.01   |      11.68   |
                 ----------------------------------------
                 |  WALL  |       0.01   |      11.75   |
                 ----------------------------------------

  Step       Energy      Delta E   Gmax     Grms     Xrms     Xmax   Walltime
  ---- ---------------- -------- -------- -------- -------- -------- --------
@    5    -641.68467762 -2.9D-07  0.00006  0.00003  0.00043  0.00097    466.9
                                     ok       ok       ok       ok  


      ----------------------
      Optimization converged
      ----------------------


  Step       Energy      Delta E   Gmax     Grms     Xrms     Xmax   Walltime
  ---- ---------------- -------- -------- -------- -------- -------- --------
@    5    -641.68467762 -2.9D-07  0.00006  0.00003  0.00043  0.00097    466.9
                                     ok       ok       ok       ok  



                         Geometry "geometry" -> "geometry"
                         ---------------------------------

 Output coordinates in angstroms (scale by  1.889725989 to convert to a.u.)

  No.       Tag          Charge          X              Y              Z
 ---- ---------------- ---------- -------------- -------------- --------------
    1 P                   15.0000     0.00016271    -0.00062972    -0.03371994
    2 O                    8.0000    -0.00147621     1.52022332    -0.55910011
    3 O                    8.0000     1.31267574    -0.75474270    -0.57897002
    4 O                    8.0000     0.00482597    -0.01336791     1.57534523
    5 O                    8.0000    -1.31526221    -0.75473398    -0.57191515

      Atomic Mass 
      ----------- 

      P                 30.973760
      O                 15.994910


 Effective nuclear repulsion energy (a.u.)     235.2016965353

            Nuclear Dipole moment (a.u.) 
            ----------------------------
        X                 Y               Z
 ---------------- ---------------- ----------------
     0.0161514374    -0.0574779696    -2.9912843096

 ==============================================================================
                                internuclear distances
 ------------------------------------------------------------------------------
       center one      |      center two      | atomic units |  angstroms
 ------------------------------------------------------------------------------
    2 O                |   1 P                |     3.04065  |     1.60904
    3 O                |   1 P                |     3.04045  |     1.60894
    4 O                |   1 P                |     3.04080  |     1.60912
    5 O                |   1 P                |     3.04045  |     1.60893
 ------------------------------------------------------------------------------
                         number of included internuclear distances:          4
 ==============================================================================



 ==============================================================================
                                 internuclear angles
 ------------------------------------------------------------------------------
        center 1       |       center 2       |       center 3       |  degrees
 ------------------------------------------------------------------------------
    2 O                |   1 P                |   3 O                |   109.46
    2 O                |   1 P                |   4 O                |   109.51
    2 O                |   1 P                |   5 O                |   109.45
    3 O                |   1 P                |   4 O                |   109.44
    3 O                |   1 P                |   5 O                |   109.51
    4 O                |   1 P                |   5 O                |   109.46
 ------------------------------------------------------------------------------
                            number of included internuclear angles:          6
 ==============================================================================




 Task  times  cpu:      457.9s     wall:      466.7s


                                NWChem Input Module
                                -------------------


 Summary of allocated global arrays
-----------------------------------
  No active global arrays


MA_summarize_allocated_blocks: starting scan ...
MA_summarize_allocated_blocks: scan completed: 0 heap blocks, 0 stack blocks
MA usage statistics:

	allocation statistics:
					      heap	     stack
					      ----	     -----
	current number of blocks	         0	         0
	maximum number of blocks	        24	        53
	current total bytes		         0	         0
	maximum total bytes		 269966352	  44712872
	maximum total K-bytes		    269967	     44713
	maximum total M-bytes		       270	        45


                                     CITATION
                                     --------
                Please cite the following reference when publishing
                           results obtained with NWChem:

          E. Apra, E. J. Bylaska, W. A. de Jong, N. Govind, K. Kowalski,
       T. P. Straatsma, M. Valiev, H. J. J. van Dam, Y. Alexeev, J. Anchell,
       V. Anisimov, F. W. Aquino, R. Atta-Fynn, J. Autschbach, N. P. Bauman,
     J. C. Becca, D. E. Bernholdt, K. Bhaskaran-Nair, S. Bogatko, P. Borowski,
         J. Boschen, J. Brabec, A. Bruner, E. Cauet, Y. Chen, G. N. Chuev,
      C. J. Cramer, J. Daily, M. J. O. Deegan, T. H. Dunning Jr., M. Dupuis,
   K. G. Dyall, G. I. Fann, S. A. Fischer, A. Fonari, H. Fruchtl, L. Gagliardi,
      J. Garza, N. Gawande, S. Ghosh, K. Glaesemann, A. W. Gotz, J. Hammond,
       V. Helms, E. D. Hermes, K. Hirao, S. Hirata, M. Jacquelin, L. Jensen,
   B. G. Johnson, H. Jonsson, R. A. Kendall, M. Klemm, R. Kobayashi, V. Konkov,
      S. Krishnamoorthy, M. Krishnan, Z. Lin, R. D. Lins, R. J. Littlefield,
      A. J. Logsdail, K. Lopata, W. Ma, A. V. Marenich, J. Martin del Campo,
   D. Mejia-Rodriguez, J. E. Moore, J. M. Mullin, T. Nakajima, D. R. Nascimento,
    J. A. Nichols, P. J. Nichols, J. Nieplocha, A. Otero-de-la-Roza, B. Palmer,
    A. Panyala, T. Pirojsirikul, B. Peng, R. Peverati, J. Pittner, L. Pollack,
   R. M. Richard, P. Sadayappan, G. C. Schatz, W. A. Shelton, D. W. Silverstein,
   D. M. A. Smith, T. A. Soares, D. Song, M. Swart, H. L. Taylor, G. S. Thomas,
            V. Tipparaju, D. G. Truhlar, K. Tsemekhman, T. Van Voorhis,
      A. Vazquez-Mayagoitia, P. Verma, O. Villa, A. Vishnu, K. D. Vogiatzis,
        D. Wang, J. H. Weare, M. J. Williamson, T. L. Windus, K. Wolinski,
        A. T. Wong, Q. Wu, C. Yang, Q. Yu, M. Zacharias, Z. Zhang, Y. Zhao,
                                and R. J. Harrison
                        "NWChem: Past, present, and future
                         J. Chem. Phys. 152, 184102 (2020)
                               doi:10.1063/5.0004997

                                      AUTHORS
                                      -------
  E. Apra, E. J. Bylaska, N. Govind, K. Kowalski, M. Valiev, D. Mejia-Rodriguez,
       A. Kunitsa, N. P. Bauman, A. Panyala, W. A. de Jong, T. P. Straatsma,
   H. J. J. van Dam, D. Wang, T. L. Windus, J. Hammond, J. Autschbach, A. Woods,
    K. Bhaskaran-Nair, J. Brabec, K. Lopata, S. A. Fischer, S. Krishnamoorthy,
     M. Jacquelin, W. Ma, M. Klemm, O. Villa, Y. Chen, V. Anisimov, F. Aquino,
     S. Hirata, M. T. Hackler, E. Hermes, L. Jensen, J. E. Moore, J. C. Becca,
      V. Konjkov, T. Risthaus, M. Malagoli, A. Marenich, A. Otero-de-la-Roza,
        J. Mullin, P. Nichols, R. Peverati, J. Pittner, Y. Zhao, P.-D. Fan,
        A. Fonari, M. J. Williamson, R. J. Harrison, J. R. Rehr, M. Dupuis,
     D. Silverstein, D. M. A. Smith, J. Nieplocha, V. Tipparaju, M. Krishnan,
     B. E. Van Kuiken, A. Vazquez-Mayagoitia, M. Swart, Q. Wu, T. Van Voorhis,
     A. A. Auer, M. Nooijen, L. D. Crosby, E. Brown, G. Cisneros, G. I. Fann,
   H. Fruchtl, J. Garza, K. Hirao, R. A. Kendall, J. A. Nichols, K. Tsemekhman,
    K. Wolinski, J. Anchell, D. E. Bernholdt, P. Borowski, T. Clark, D. Clerc,
   H. Dachsel, M. J. O. Deegan, K. Dyall, D. Elwood, E. Glendening, M. Gutowski,
   A. C. Hess, J. Jaffe, B. G. Johnson, J. Ju, R. Kobayashi, R. Kutteh, Z. Lin,
   R. Littlefield, X. Long, B. Meng, T. Nakajima, S. Niu, L. Pollack, M. Rosing,
   K. Glaesemann, G. Sandrone, M. Stave, H. Taylor, G. Thomas, J. H. van Lenthe,
                               A. T. Wong, Z. Zhang.

 Total times  cpu:      458.0s     wall:      466.9s
