 argument  1 = proton/mol.nwi
                                         
                                         


             Northwest Computational Chemistry Package (NWChem) 7.2.2
             --------------------------------------------------------


                    Environmental Molecular Sciences Laboratory
                       Pacific Northwest National Laboratory
                                Richland, WA 99352

                              Copyright (c) 1994-2022
                       Pacific Northwest National Laboratory
                            Battelle Memorial Institute

             NWChem is an open-source computational chemistry package
                        distributed under the terms of the
                      Educational Community License (ECL) 2.0
             A copy of the license is included with this distribution
                              in the LICENSE.TXT file

                                  ACKNOWLEDGMENT
                                  --------------

            This software and its documentation were developed at the
            EMSL at Pacific Northwest National Laboratory, a multiprogram
            national laboratory, operated for the U.S. Department of Energy
            by Battelle under Contract Number DE-AC05-76RL01830. Support
            for this work was provided by the Department of Energy Office
            of Biological and Environmental Research, Office of Basic
            Energy Sciences, and the Office of Advanced Scientific Computing.


           Job information
           ---------------

    hostname        = r317.ib.bridges2.psc.edu
    program         = nwchem
    date            = Wed Oct  2 10:31:58 2024

    compiled        = Mon_Mar_18_17:03:37_2024
    source          = /ocean/projects/pscstaff/mmadrid/nwchem-7.2.2
    nwchem branch   = 7.2.2
    nwchem revision = 74936fb9
    ga revision     = 5.8.0
    use scalapack   = F
    input           = proton/mol.nwi
    prefix          = dft.
    data base       = .//dft.db
    status          = startup
    nproc           =       15
    time left       =     -1s



           Memory information
           ------------------

    heap     =   67108858 doubles =    512.0 Mbytes
    stack    =   67108863 doubles =    512.0 Mbytes
    global   =  134217728 doubles =   1024.0 Mbytes (distinct from heap & stack)
    total    =  268435449 doubles =   2048.0 Mbytes
    verify   = yes
    hardfail = no 


           Directory information
           ---------------------

  0 permanent = ./
  0 scratch   = /jet/home/hmt47/nwchem_scratch/




                                NWChem Input Module
                                -------------------


  library name resolved from: environment
  library file name is: </opt/packages/nwchem/nwchem7.2.2/share/nwchem/libraries/>
  


 Summary of "ao basis" -> "" (cartesian)
 ------------------------------------------------------------------------------
       Tag                 Description            Shells   Functions and Types
 ---------------- ------------------------------  ------  ---------------------
 *                        aug-cc-pVTZ                 on all atoms 


  pbe96 is a nonlocal functional; adding pw91lda local functional. 

 Scaling coordinates for geometry "geometry" by  1.889725989
 (inverse scale =  0.529177249)



                             Geometry "geometry" -> ""
                             -------------------------

 Output coordinates in angstroms (scale by  1.889725989 to convert to a.u.)

  No.       Tag          Charge          X              Y              Z
 ---- ---------------- ---------- -------------- -------------- --------------
    1 N                    7.0000     0.00000000     0.00000000     0.00000000
    2 O                    8.0000     0.55344300     0.94679500    -0.59264200
    3 O                    8.0000    -0.54227900    -0.96266200    -0.60351600
    4 H                    1.0000     0.61614508     1.02078028    -1.55194321

      Atomic Mass 
      ----------- 

      N                 14.003070
      O                 15.994910
      H                  1.007825


 Effective nuclear repulsion energy (a.u.)      70.6809195051

            Nuclear Dipole moment (a.u.) 
            ----------------------------
        X                 Y               Z
 ---------------- ---------------- ----------------
     1.3331205843     1.6891207587   -21.0160342963


            XYZ format geometry
            -------------------
     4
 geometry
 N                     0.00000000     0.00000000     0.00000000
 O                     0.55344300     0.94679500    -0.59264200
 O                    -0.54227900    -0.96266200    -0.60351600
 H                     0.61614508     1.02078028    -1.55194321

 ==============================================================================
                                internuclear distances
 ------------------------------------------------------------------------------
       center one      |      center two      | atomic units |  angstroms
 ------------------------------------------------------------------------------
    2 O                |   1 N                |     2.35568  |     1.24657
    3 O                |   1 N                |     2.37912  |     1.25897
    4 H                |   2 O                |     1.82206  |     0.96419
 ------------------------------------------------------------------------------
                         number of included internuclear distances:          3
 ==============================================================================



 ==============================================================================
                                 internuclear angles
 ------------------------------------------------------------------------------
        center 1       |       center 2       |       center 3       |  degrees
 ------------------------------------------------------------------------------
    2 O                |   1 N                |   3 O                |   122.96
    1 N                |   2 O                |   4 H                |   124.07
 ------------------------------------------------------------------------------
                            number of included internuclear angles:          2
 ==============================================================================





                           NWChem Geometry Optimization
                           ----------------------------


 maximum gradient threshold         (gmax) =   0.000450
 rms gradient threshold             (grms) =   0.000300
 maximum cartesian step threshold   (xmax) =   0.001800
 rms cartesian step threshold       (xrms) =   0.001200
 fixed trust radius                (trust) =   0.300000
 maximum step size to saddle      (sadstp) =   0.100000
 energy precision                  (eprec) =   5.0D-06
 maximum number of steps          (nptopt) =   40
 initial hessian option           (inhess) =    0
 line search option               (linopt) =    1
 hessian update option            (modupd) =    1
 saddle point option              (modsad) =    0
 initial eigen-mode to follow     (moddir) =    0
 initial variable to follow       (vardir) =    0
 follow first negative mode     (firstneg) =    T
 apply conjugacy                    (opcg) =    F
 source of zmatrix                         =           


          -------------------
          Energy Minimization
          -------------------


 Using diagonal initial Hessian 

          --------
          Step   0
          --------


                         Geometry "geometry" -> "geometry"
                         ---------------------------------

 Output coordinates in angstroms (scale by  1.889725989 to convert to a.u.)

  No.       Tag          Charge          X              Y              Z
 ---- ---------------- ---------- -------------- -------------- --------------
    1 N                    7.0000     0.00000000     0.00000000     0.00000000
    2 O                    8.0000     0.55344300     0.94679500    -0.59264200
    3 O                    8.0000    -0.54227900    -0.96266200    -0.60351600
    4 H                    1.0000     0.61614508     1.02078028    -1.55194321

      Atomic Mass 
      ----------- 

      N                 14.003070
      O                 15.994910
      H                  1.007825


 Effective nuclear repulsion energy (a.u.)      70.6809195051

            Nuclear Dipole moment (a.u.) 
            ----------------------------
        X                 Y               Z
 ---------------- ---------------- ----------------
     1.3331205843     1.6891207587   -21.0160342963


                                 NWChem DFT Module
                                 -----------------


                      Basis "ao basis" -> "ao basis" (cartesian)
                      -----
  N (Nitrogen)
  ------------
            Exponent  Coefficients 
       -------------- ---------------------------------------------------------
  1 S  1.14200000E+04  0.000523
  1 S  1.71200000E+03  0.004045
  1 S  3.89300000E+02  0.020775
  1 S  1.10000000E+02  0.080727
  1 S  3.55700000E+01  0.233074
  1 S  1.25400000E+01  0.433501
  1 S  4.64400000E+00  0.347472
  1 S  5.11800000E-01 -0.008508

  2 S  1.14200000E+04 -0.000115
  2 S  1.71200000E+03 -0.000895
  2 S  3.89300000E+02 -0.004624
  2 S  1.10000000E+02 -0.018528
  2 S  3.55700000E+01 -0.057339
  2 S  1.25400000E+01 -0.132076
  2 S  4.64400000E+00 -0.172510
  2 S  5.11800000E-01  0.599944

  3 S  1.29300000E+00  1.000000

  4 S  1.78700000E-01  1.000000

  5 S  5.76000000E-02  1.000000

  6 P  2.66300000E+01  0.014670
  6 P  5.94800000E+00  0.091764
  6 P  1.74200000E+00  0.298683

  7 P  5.55000000E-01  1.000000

  8 P  1.72500000E-01  1.000000

  9 P  4.91000000E-02  1.000000

 10 D  1.65400000E+00  1.000000

 11 D  4.69000000E-01  1.000000

 12 D  1.51000000E-01  1.000000

 13 F  1.09300000E+00  1.000000

 14 F  3.64000000E-01  1.000000

  O (Oxygen)
  ----------
            Exponent  Coefficients 
       -------------- ---------------------------------------------------------
  1 S  1.53300000E+04  0.000508
  1 S  2.29900000E+03  0.003929
  1 S  5.22400000E+02  0.020243
  1 S  1.47300000E+02  0.079181
  1 S  4.75500000E+01  0.230687
  1 S  1.67600000E+01  0.433118
  1 S  6.20700000E+00  0.350260
  1 S  6.88200000E-01 -0.008154

  2 S  1.53300000E+04 -0.000115
  2 S  2.29900000E+03 -0.000895
  2 S  5.22400000E+02 -0.004636
  2 S  1.47300000E+02 -0.018724
  2 S  4.75500000E+01 -0.058463
  2 S  1.67600000E+01 -0.136463
  2 S  6.20700000E+00 -0.175740
  2 S  6.88200000E-01  0.603418

  3 S  1.75200000E+00  1.000000

  4 S  2.38400000E-01  1.000000

  5 S  7.37600000E-02  1.000000

  6 P  3.44600000E+01  0.015928
  6 P  7.74900000E+00  0.099740
  6 P  2.28000000E+00  0.310492

  7 P  7.15600000E-01  1.000000

  8 P  2.14000000E-01  1.000000

  9 P  5.97400000E-02  1.000000

 10 D  2.31400000E+00  1.000000

 11 D  6.45000000E-01  1.000000

 12 D  2.14000000E-01  1.000000

 13 F  1.42800000E+00  1.000000

 14 F  5.00000000E-01  1.000000

  H (Hydrogen)
  ------------
            Exponent  Coefficients 
       -------------- ---------------------------------------------------------
  1 S  3.38700000E+01  0.006068
  1 S  5.09500000E+00  0.045308
  1 S  1.15900000E+00  0.202822

  2 S  3.25800000E-01  1.000000

  3 S  1.02700000E-01  1.000000

  4 S  2.52600000E-02  1.000000

  5 P  1.40700000E+00  1.000000

  6 P  3.88000000E-01  1.000000

  7 P  1.02000000E-01  1.000000

  8 D  1.05700000E+00  1.000000

  9 D  2.47000000E-01  1.000000



 Summary of "ao basis" -> "ao basis" (cartesian)
 ------------------------------------------------------------------------------
       Tag                 Description            Shells   Functions and Types
 ---------------- ------------------------------  ------  ---------------------
 N                        aug-cc-pVTZ               14       55   5s4p3d2f
 O                        aug-cc-pVTZ               14       55   5s4p3d2f
 H                        aug-cc-pVTZ                9       25   4s3p2d




 Summary of "ao basis" -> "ao basis" (cartesian)
 ------------------------------------------------------------------------------
       Tag                 Description            Shells   Functions and Types
 ---------------- ------------------------------  ------  ---------------------
 N                        aug-cc-pVTZ               14       55   5s4p3d2f
 O                        aug-cc-pVTZ               14       55   5s4p3d2f
 H                        aug-cc-pVTZ                9       25   4s3p2d


  Caching 1-el integrals 

            General Information
            -------------------
          SCF calculation type: DFT
          Wavefunction type:  closed shell.
          No. of atoms     :     4
          No. of electrons :    24
           Alpha electrons :    12
            Beta electrons :    12
          Charge           :     0
          Spin multiplicity:     1
          Use of symmetry is: off; symmetry adaption is: off
          Maximum number of iterations: 200
          AO basis - number of functions:   190
                     number of shells:    51
          Convergence on energy requested:  1.00D-06
          Convergence on density requested:  1.00D-05
          Convergence on gradient requested:  5.00D-04

              XC Information
              --------------
          PerdewBurkeErnzerhof Exchange Functional  1.000          
            Perdew 1991 LDA Correlation Functional  1.000 local    
           PerdewBurkeErnz. Correlation Functional  1.000 non-local

             Grid Information
             ----------------
          Grid used for XC integration:  medium    
          Radial quadrature: Mura-Knowles        
          Angular quadrature: Lebedev. 
          Tag              B.-S. Rad. Rad. Pts. Rad. Cut. Ang. Pts.
          ---              ---------- --------- --------- ---------
          N                   0.65       49          12.0       434
          O                   0.60       49          12.0       434
          H                   0.35       45          11.0       434
          Grid pruning is: on 
          Number of quadrature shells:   192
          Spatial weights used:  Erf1

          Convergence Information
          -----------------------
          Convergence aids based upon iterative change in 
          total energy or number of iterations. 
          Levelshifting, if invoked, occurs when the 
          HOMO/LUMO gap drops below (HL_TOL):  1.00D-02
          DIIS, if invoked, will attempt to extrapolate 
          using up to (NFOCK): 10 stored Fock matrices.

                    Damping(40%)  Levelshifting(0.0)       DIIS
                  --------------- ------------------- ---------------
          dE  on:    start            0.00D+00            start   
          dE off:  200 iters          0.00D+00          200 iters 


      Screening Tolerance Information
      -------------------------------
          Density screening/tol_rho:  1.00D-10
          AO Gaussian exp screening on grid/accAOfunc:  14
          CD Gaussian exp screening on grid/accCDfunc:  20
          XC Gaussian exp screening on grid/accXCfunc:  20
          Schwarz screening/accCoul:  1.00D-08


 Forcing the number of linearly dependent vectors to be  0

      Superposition of Atomic Density Guess
      -------------------------------------

 Sum of atomic energies:        -204.37251878
   Time after variat. SCF:      0.3
   Time prior to 1st pass:      0.3

 Grid_pts file          = /jet/home/hmt47/nwchem_scratch//dft.gridpts.00
 Record size in doubles =  12289        No. of grid_pts per rec  =   3070
 Max. records in memory =      3        Max. recs in file   =  67550051


           Memory utilization after 1st SCF pass: 
           Heap Space remaining (MW):       33.51            33512858
          Stack Space remaining (MW):       67.11            67107796

   convergence    iter        energy       DeltaE   RMS-Dens  Diis-err    time
 ---------------- ----- ----------------- --------- --------- ---------  ------
 d=40,ls=0.0,diis     1   -206.1044356445 -2.77D+02  1.04D-02  2.83D+01     0.5
 d=40,ls=0.0,diis     2   -205.7711615868  3.33D-01  7.92D-03  4.77D+00     1.1
 d=40,ls=0.0,diis     3   -205.3722724161  3.99D-01  3.84D-03  2.61D+00     1.6
 d=40,ls=0.0,diis     4   -205.5405008876 -1.68D-01  1.33D-03  4.07D-01     2.2
 d=40,ls=0.0,diis     5   -205.5629508592 -2.24D-02  5.98D-04  7.85D-02     2.7
  Resetting Diis
 d=40,ls=0.0,diis     6   -205.5693367144 -6.39D-03  2.23D-04  2.62D-02     3.2
 d=40,ls=0.0,diis     7   -205.5717884500 -2.45D-03  7.79D-04  1.07D-02     3.8
 d=40,ls=0.0,diis     8   -205.5683966852  3.39D-03  3.25D-04  4.08D-02     4.3
 d=40,ls=0.0,diis     9   -205.5722592006 -3.86D-03  1.21D-04  6.79D-03     4.9
 d=40,ls=0.0,diis    10   -205.5731909058 -9.32D-04  6.72D-05  1.33D-03     5.4
 d=40,ls=0.0,diis    11   -205.5734947106 -3.04D-04  2.44D-05  2.20D-04     5.9
 d=40,ls=0.0,diis    12   -205.5735972167 -1.03D-04  8.36D-06  3.15D-05     6.5
 d=40,ls=0.0,diis    13   -205.5736346010 -3.74D-05  3.36D-06  5.18D-06     7.0
 d=40,ls=0.0,diis    14   -205.5736491120 -1.45D-05  1.41D-06  8.72D-07     7.6
 d=40,ls=0.0,diis    15   -205.5736548460 -5.73D-06  5.69D-07  1.41D-07     8.1
 d=40,ls=0.0,diis    16   -205.5736571271 -2.28D-06  2.27D-07  2.26D-08     8.6
 d=40,ls=0.0,diis    17   -205.5736580375 -9.10D-07  9.10D-08  3.61D-09     9.2


         Total DFT energy =     -205.573658037498
      One electron energy =     -421.116769765055
           Coulomb energy =      168.976405564557
    Exchange-Corr. energy =      -24.114213342146
 Nuclear repulsion energy =       70.680919505146

 Numeric. integr. density =       23.999999770108

     Total iterative time =      8.8s



                       DFT Final Molecular Orbital Analysis
                       ------------------------------------

 Vector    1  Occ=2.000000D+00  E=-1.887805D+01
              MO Center=  5.5D-01,  9.5D-01, -5.9D-01, r^2= 1.5D-02
   Bfn.  Coefficient  Atom+Function         Bfn.  Coefficient  Atom+Function  
  ----- ------------  ---------------      ----- ------------  ---------------
    56      0.982001  2 O  s                 58      0.064884  2 O  s          
    60     -0.034928  2 O  s                  5      0.029741  1 N  s          
    90      0.025863  2 O  dzz        

 Vector    2  Occ=2.000000D+00  E=-1.881307D+01
              MO Center= -5.4D-01, -9.6D-01, -6.0D-01, r^2= 1.5D-02
   Bfn.  Coefficient  Atom+Function         Bfn.  Coefficient  Atom+Function  
  ----- ------------  ---------------      ----- ------------  ---------------
   111      0.978506  3 O  s                113      0.063858  3 O  s          
   115     -0.041588  3 O  s                  5      0.026931  1 N  s          
   114     -0.026828  3 O  s          

 Vector    3  Occ=2.000000D+00  E=-1.416402D+01
              MO Center=  2.1D-05,  2.7D-05, -2.8D-04, r^2= 2.0D-02
   Bfn.  Coefficient  Atom+Function         Bfn.  Coefficient  Atom+Function  
  ----- ------------  ---------------      ----- ------------  ---------------
     1      0.992846  1 N  s                  3      0.057990  1 N  s          
     2      0.043301  1 N  s                  4     -0.040025  1 N  s          
    14      0.030954  1 N  pz         

 Vector    4  Occ=2.000000D+00  E=-1.155162D+00
              MO Center=  2.1D-01,  3.6D-01, -4.7D-01, r^2= 7.9D-01
   Bfn.  Coefficient  Atom+Function         Bfn.  Coefficient  Atom+Function  
  ----- ------------  ---------------      ----- ------------  ---------------
    57      0.352245  2 O  s                  2      0.278207  1 N  s          
    59      0.179910  2 O  s                112      0.159835  3 O  s          
     4      0.151374  1 N  s                 58      0.094618  2 O  s          
   114      0.079164  3 O  s                  3      0.074253  1 N  s          
     8     -0.073856  1 N  pz                62     -0.067365  2 O  py         

 Vector    5  Occ=2.000000D+00  E=-9.948317D-01
              MO Center= -1.3D-01, -2.5D-01, -4.8D-01, r^2= 1.2D+00
   Bfn.  Coefficient  Atom+Function         Bfn.  Coefficient  Atom+Function  
  ----- ------------  ---------------      ----- ------------  ---------------
   112      0.371177  3 O  s                 57     -0.272050  2 O  s          
   114      0.272410  3 O  s                 59     -0.181309  2 O  s          
     7     -0.124125  1 N  py                 2      0.122911  1 N  s          
   113      0.101583  3 O  s                 10     -0.089226  1 N  py         
    58     -0.072557  2 O  s                  6     -0.070797  1 N  px         

 Vector    6  Occ=2.000000D+00  E=-7.199890D-01
              MO Center=  4.1D-01,  6.8D-01, -7.0D-01, r^2= 1.1D+00
   Bfn.  Coefficient  Atom+Function         Bfn.  Coefficient  Atom+Function  
  ----- ------------  ---------------      ----- ------------  ---------------
     2      0.241421  1 N  s                 63      0.215927  2 O  pz         
    66      0.185865  2 O  pz               167     -0.183118  4 H  s          
     4      0.174047  1 N  s                112     -0.162647  3 O  s          
   114     -0.152221  3 O  s                 57     -0.149671  2 O  s          
   166     -0.144266  4 H  s                 62     -0.124500  2 O  py         

 Vector    7  Occ=2.000000D+00  E=-5.129835D-01
              MO Center= -3.4D-01, -6.2D-01, -5.9D-01, r^2= 1.4D+00
   Bfn.  Coefficient  Atom+Function         Bfn.  Coefficient  Atom+Function  
  ----- ------------  ---------------      ----- ------------  ---------------
   114      0.330949  3 O  s                112      0.295910  3 O  s          
     4     -0.252463  1 N  s                  2     -0.197359  1 N  s          
    59      0.173116  2 O  s                117     -0.169446  3 O  py         
   120     -0.160274  3 O  py                63      0.145966  2 O  pz         
   115      0.141776  3 O  s                  5     -0.136049  1 N  s          

 Vector    8  Occ=2.000000D+00  E=-4.808295D-01
              MO Center=  1.6D-01,  2.7D-01, -3.7D-01, r^2= 1.2D+00
   Bfn.  Coefficient  Atom+Function         Bfn.  Coefficient  Atom+Function  
  ----- ------------  ---------------      ----- ------------  ---------------
    61      0.214711  2 O  px                64      0.214682  2 O  px         
     6      0.205833  1 N  px                 9      0.199021  1 N  px         
    62     -0.123919  2 O  py                65     -0.123824  2 O  py         
     7     -0.117226  1 N  py               116      0.117643  3 O  px         
   119      0.116374  3 O  px                10     -0.113421  1 N  py         

 Vector    9  Occ=2.000000D+00  E=-4.673104D-01
              MO Center=  2.2D-01,  3.7D-01, -3.0D-01, r^2= 1.4D+00
   Bfn.  Coefficient  Atom+Function         Bfn.  Coefficient  Atom+Function  
  ----- ------------  ---------------      ----- ------------  ---------------
    62      0.201668  2 O  py                 8      0.196692  1 N  pz         
    65      0.196587  2 O  py                11      0.183575  1 N  pz         
    59      0.149454  2 O  s                118      0.135111  3 O  pz         
   121      0.129104  3 O  pz                63      0.115940  2 O  pz         
    61      0.114194  2 O  px                64      0.111451  2 O  px         

 Vector   10  Occ=2.000000D+00  E=-3.346429D-01
              MO Center=  1.2D-02,  2.2D-02, -3.4D-01, r^2= 1.9D+00
   Bfn.  Coefficient  Atom+Function         Bfn.  Coefficient  Atom+Function  
  ----- ------------  ---------------      ----- ------------  ---------------
     4      0.192858  1 N  s                 60     -0.191754  2 O  s          
   117     -0.190062  3 O  py                59     -0.186959  2 O  s          
   120     -0.181495  3 O  py                 8      0.172411  1 N  pz         
    11      0.165346  1 N  pz                63     -0.158735  2 O  pz         
    66     -0.154227  2 O  pz                62     -0.146658  2 O  py         

 Vector   11  Occ=2.000000D+00  E=-3.309888D-01
              MO Center= -5.9D-02, -1.3D-01, -5.6D-01, r^2= 1.7D+00
   Bfn.  Coefficient  Atom+Function         Bfn.  Coefficient  Atom+Function  
  ----- ------------  ---------------      ----- ------------  ---------------
   116     -0.245492  3 O  px               119     -0.245948  3 O  px         
    64      0.233092  2 O  px                61      0.229952  2 O  px         
   122     -0.154821  3 O  px                67      0.153317  2 O  px         
   117      0.149259  3 O  py               120      0.149156  3 O  py         
    65     -0.127803  2 O  py                62     -0.125908  2 O  py         

 Vector   12  Occ=2.000000D+00  E=-2.335915D-01
              MO Center= -2.4D-01, -4.3D-01, -3.7D-01, r^2= 1.6D+00
   Bfn.  Coefficient  Atom+Function         Bfn.  Coefficient  Atom+Function  
  ----- ------------  ---------------      ----- ------------  ---------------
   118     -0.306847  3 O  pz               121     -0.306012  3 O  pz         
     4      0.291535  1 N  s                124     -0.238282  3 O  pz         
     5      0.200949  1 N  s                  2      0.183077  1 N  s          
     8      0.179058  1 N  pz                11      0.179208  1 N  pz         
    59     -0.161407  2 O  s                 57     -0.125301  2 O  s          

 Vector   13  Occ=0.000000D+00  E=-1.280641D-01
              MO Center= -7.7D-02, -1.4D-01, -3.1D-01, r^2= 1.5D+00
   Bfn.  Coefficient  Atom+Function         Bfn.  Coefficient  Atom+Function  
  ----- ------------  ---------------      ----- ------------  ---------------
     9      0.302233  1 N  px                 6      0.283396  1 N  px         
    12      0.275230  1 N  px               119     -0.220161  3 O  px         
   116     -0.213669  3 O  px               122     -0.203259  3 O  px         
    10     -0.173618  1 N  py                 7     -0.162776  1 N  py         
    13     -0.157742  1 N  py                64     -0.158327  2 O  px         

 Vector   14  Occ=0.000000D+00  E=-3.909946D-02
              MO Center=  7.3D-01,  1.2D+00, -2.1D+00, r^2= 5.4D+00
   Bfn.  Coefficient  Atom+Function         Bfn.  Coefficient  Atom+Function  
  ----- ------------  ---------------      ----- ------------  ---------------
     5      1.041774  1 N  s                169     -0.890250  4 H  s          
    60     -0.726880  2 O  s                178      0.267250  4 H  pz         
   115     -0.258257  3 O  s                  4      0.247456  1 N  s          
    71      0.153644  2 O  py                69     -0.135495  2 O  pz         
    57      0.130600  2 O  s                 66     -0.127945  2 O  pz         

 Vector   15  Occ=0.000000D+00  E= 2.776773D-02
              MO Center= -2.4D-01, -4.3D-01, -6.1D-01, r^2= 1.1D+01
   Bfn.  Coefficient  Atom+Function         Bfn.  Coefficient  Atom+Function  
  ----- ------------  ---------------      ----- ------------  ---------------
   168     -2.331900  4 H  s                115      2.186725  3 O  s          
     5     -1.494706  1 N  s                 72     -1.223358  2 O  pz         
   169     -1.088635  4 H  s                 16      1.068071  1 N  py         
    60      0.887927  2 O  s                178     -0.791481  4 H  pz         
    15      0.608538  1 N  px               167      0.489679  4 H  s          

 Vector   16  Occ=0.000000D+00  E= 4.278611D-02
              MO Center=  4.9D-01,  8.4D-01, -2.0D-01, r^2= 1.1D+01
   Bfn.  Coefficient  Atom+Function         Bfn.  Coefficient  Atom+Function  
  ----- ------------  ---------------      ----- ------------  ---------------
   115     -3.337568  3 O  s                 60      3.155705  2 O  s          
    16     -1.572276  1 N  py               168     -1.417716  4 H  s          
    13     -1.068329  1 N  py               114     -1.027314  3 O  s          
    15     -0.889887  1 N  px                 5      0.789444  1 N  s          
   178     -0.732964  4 H  pz                17     -0.697307  1 N  pz         

 Vector   17  Occ=0.000000D+00  E= 5.319479D-02
              MO Center=  2.3D-01,  3.9D-01, -3.0D-01, r^2= 8.4D+00
   Bfn.  Coefficient  Atom+Function         Bfn.  Coefficient  Atom+Function  
  ----- ------------  ---------------      ----- ------------  ---------------
    15      0.750099  1 N  px                12     -0.558347  1 N  px         
    16     -0.431990  1 N  py                13      0.321543  1 N  py         
    70      0.316735  2 O  px                71     -0.192735  2 O  py         
    46      0.164534  1 N  fxxx              49      0.165048  1 N  fxyy       
    51      0.160465  1 N  fxzz              47     -0.114152  1 N  fxxy       

 Vector   18  Occ=0.000000D+00  E= 6.761483D-02
              MO Center=  6.2D-01,  1.0D+00, -1.9D+00, r^2= 1.4D+01
   Bfn.  Coefficient  Atom+Function         Bfn.  Coefficient  Atom+Function  
  ----- ------------  ---------------      ----- ------------  ---------------
     5      8.467019  1 N  s                169     -2.573742  4 H  s          
   115     -2.197374  3 O  s                 60     -2.045088  2 O  s          
    72     -1.521444  2 O  pz                71      1.191278  2 O  py         
   168     -1.097835  4 H  s                  4      1.085046  1 N  s          
   126     -0.750412  3 O  py                70      0.712719  2 O  px         

 Vector   19  Occ=0.000000D+00  E= 7.639209D-02
              MO Center=  1.9D-01,  3.3D-01,  7.3D-02, r^2= 1.1D+01
   Bfn.  Coefficient  Atom+Function         Bfn.  Coefficient  Atom+Function  
  ----- ------------  ---------------      ----- ------------  ---------------
     5      9.556594  1 N  s                 60     -8.695635  2 O  s          
   115     -3.884705  3 O  s                 17     -3.077345  1 N  pz         
     4      2.886919  1 N  s                168      2.498040  4 H  s          
    71      2.231589  2 O  py                59     -1.977065  2 O  s          
    70      1.277405  2 O  px                14     -1.114350  1 N  pz         

 Vector   20  Occ=0.000000D+00  E= 9.045536D-02
              MO Center= -2.3D-01, -3.9D-01, -6.8D-02, r^2= 9.8D+00
   Bfn.  Coefficient  Atom+Function         Bfn.  Coefficient  Atom+Function  
  ----- ------------  ---------------      ----- ------------  ---------------
    60      5.825413  2 O  s                  5     -4.698291  1 N  s          
   168     -2.332547  4 H  s                 17      1.885829  1 N  pz         
    16     -1.418280  1 N  py                59      1.363586  2 O  s          
    13     -1.111414  1 N  py               114     -0.967973  3 O  s          
    72     -0.887082  2 O  pz                15     -0.849806  1 N  px         

 Vector   21  Occ=0.000000D+00  E= 1.113981D-01
              MO Center=  2.1D-01,  3.5D-01, -3.3D-01, r^2= 1.0D+01
   Bfn.  Coefficient  Atom+Function         Bfn.  Coefficient  Atom+Function  
  ----- ------------  ---------------      ----- ------------  ---------------
    70      1.904801  2 O  px                15     -1.602736  1 N  px         
    71     -1.099495  2 O  py                16      0.920671  1 N  py         
    31     -0.328801  1 N  dxy               30     -0.283675  1 N  dxx        
    33      0.276183  1 N  dyy               86     -0.173286  2 O  dxy        
   125     -0.165369  3 O  px                85     -0.149905  2 O  dxx        

 Vector   22  Occ=0.000000D+00  E= 1.163182D-01
              MO Center= -1.2D-01, -2.3D-01, -6.6D-01, r^2= 1.0D+01
   Bfn.  Coefficient  Atom+Function         Bfn.  Coefficient  Atom+Function  
  ----- ------------  ---------------      ----- ------------  ---------------
   168      4.107580  4 H  s                  4      3.021144  1 N  s          
    60     -2.893945  2 O  s                127     -1.629394  3 O  pz         
    72      1.388100  2 O  pz               114     -1.000179  3 O  s          
    33      0.932823  1 N  dyy               71      0.878479  2 O  py         
    59     -0.857451  2 O  s                 17      0.831230  1 N  pz         

 Vector   23  Occ=0.000000D+00  E= 1.331781D-01
              MO Center= -2.3D-01, -4.1D-01, -4.3D-01, r^2= 9.8D+00
   Bfn.  Coefficient  Atom+Function         Bfn.  Coefficient  Atom+Function  
  ----- ------------  ---------------      ----- ------------  ---------------
    15      2.012903  1 N  px               125     -1.897103  3 O  px         
    16     -1.144940  1 N  py               126      1.084115  3 O  py         
   176     -0.525119  4 H  px                67      0.406178  2 O  px         
    70     -0.342511  2 O  px               177      0.302511  4 H  py         
   122      0.274460  3 O  px                68     -0.229125  2 O  py         

 Vector   24  Occ=0.000000D+00  E= 1.606694D-01
              MO Center=  3.4D-01,  6.0D-01,  8.5D-02, r^2= 7.6D+00
   Bfn.  Coefficient  Atom+Function         Bfn.  Coefficient  Atom+Function  
  ----- ------------  ---------------      ----- ------------  ---------------
    60     -4.407745  2 O  s                  5      4.316146  1 N  s          
   168      2.930070  4 H  s                 71      2.844515  2 O  py         
   115     -2.802067  3 O  s                 16     -2.185342  1 N  py         
    17     -2.117084  1 N  pz                70      1.605998  2 O  px         
    72      1.453644  2 O  pz                15     -1.213402  1 N  px         

 Vector   25  Occ=0.000000D+00  E= 1.636236D-01
              MO Center= -6.7D-02, -1.3D-01, -4.8D-01, r^2= 1.2D+01
   Bfn.  Coefficient  Atom+Function         Bfn.  Coefficient  Atom+Function  
  ----- ------------  ---------------      ----- ------------  ---------------
   168      6.118278  4 H  s                 72      3.566839  2 O  pz         
    60     -3.171891  2 O  s                 17     -2.453608  1 N  pz         
   127      1.789939  3 O  pz               115     -1.649106  3 O  s          
    71     -1.589564  2 O  py               169      1.298708  4 H  s          
   126     -1.209015  3 O  py                 4     -1.158313  1 N  s          

 Vector   26  Occ=0.000000D+00  E= 1.843787D-01
              MO Center=  6.3D-02,  8.2D-02, -8.3D-01, r^2= 1.1D+01
   Bfn.  Coefficient  Atom+Function         Bfn.  Coefficient  Atom+Function  
  ----- ------------  ---------------      ----- ------------  ---------------
   168      7.392172  4 H  s                  5     -6.691912  1 N  s          
    72      5.419737  2 O  pz                16     -3.778032  1 N  py         
     4     -3.481236  1 N  s                126      2.647022  3 O  py         
    15     -2.140255  1 N  px               114      1.942661  3 O  s          
   115      1.872143  3 O  s                125      1.508931  3 O  px         

 Vector   27  Occ=0.000000D+00  E= 2.037876D-01
              MO Center= -1.8D-01, -3.5D-01, -1.1D+00, r^2= 8.3D+00
   Bfn.  Coefficient  Atom+Function         Bfn.  Coefficient  Atom+Function  
  ----- ------------  ---------------      ----- ------------  ---------------
     5     11.607223  1 N  s                 60     -9.118965  2 O  s          
   115     -8.703731  3 O  s                168      4.865651  4 H  s          
     4      2.732161  1 N  s                 59     -2.446733  2 O  s          
    17     -2.036953  1 N  pz               178      1.729847  4 H  pz         
   127     -1.705364  3 O  pz                16     -1.686794  1 N  py         

 Vector   28  Occ=0.000000D+00  E= 2.148274D-01
              MO Center=  3.7D-01,  6.2D-01, -8.3D-01, r^2= 9.4D+00
   Bfn.  Coefficient  Atom+Function         Bfn.  Coefficient  Atom+Function  
  ----- ------------  ---------------      ----- ------------  ---------------
    70      3.049530  2 O  px                15     -2.698070  1 N  px         
   176     -2.359226  4 H  px                71     -1.755343  2 O  py         
   125      1.547583  3 O  px                16      1.536539  1 N  py         
   177      1.361474  4 H  py                67      0.884518  2 O  px         
   126     -0.884603  3 O  py                87     -0.750552  2 O  dxz        

 Vector   29  Occ=0.000000D+00  E= 2.445698D-01
              MO Center=  1.1D-01,  1.9D-01, -6.8D-03, r^2= 1.1D+01
   Bfn.  Coefficient  Atom+Function         Bfn.  Coefficient  Atom+Function  
  ----- ------------  ---------------      ----- ------------  ---------------
    60     17.719390  2 O  s                  5     -7.493165  1 N  s          
   168     -6.423787  4 H  s                115     -4.560107  3 O  s          
    16     -3.315148  1 N  py                17      2.313765  1 N  pz         
    13     -2.005870  1 N  py                15     -1.947227  1 N  px         
    71     -1.592803  2 O  py                12     -1.163761  1 N  px         

 Vector   30  Occ=0.000000D+00  E= 2.630996D-01
              MO Center=  6.5D-01,  1.1D+00, -1.2D+00, r^2= 8.7D+00
   Bfn.  Coefficient  Atom+Function         Bfn.  Coefficient  Atom+Function  
  ----- ------------  ---------------      ----- ------------  ---------------
    60     10.062199  2 O  s                168     -6.861788  4 H  s          
   115     -4.699600  3 O  s                178     -4.539044  4 H  pz         
    59      3.972683  2 O  s                 16     -2.830502  1 N  py         
     4     -2.194198  1 N  s                 72      2.082096  2 O  pz         
   167     -1.661589  4 H  s                 15     -1.595451  1 N  px         

 Vector   31  Occ=0.000000D+00  E= 3.010717D-01
              MO Center=  2.0D-01,  3.3D-01, -8.8D-01, r^2= 1.0D+01
   Bfn.  Coefficient  Atom+Function         Bfn.  Coefficient  Atom+Function  
  ----- ------------  ---------------      ----- ------------  ---------------
     5     24.038645  1 N  s                 60    -19.307189  2 O  s          
   115    -12.819419  3 O  s                168      5.509716  4 H  s          
    71      4.298806  2 O  py                17     -3.820772  1 N  pz         
    70      2.498542  2 O  px               126     -2.374735  3 O  py         
   177     -2.250538  4 H  py               169     -1.622354  4 H  s          

 Vector   32  Occ=0.000000D+00  E= 3.108340D-01
              MO Center=  2.1D-01,  3.4D-01, -7.4D-01, r^2= 5.4D+00
   Bfn.  Coefficient  Atom+Function         Bfn.  Coefficient  Atom+Function  
  ----- ------------  ---------------      ----- ------------  ---------------
   168      7.885579  4 H  s                114      3.908827  3 O  s          
    72      3.780369  2 O  pz                59     -3.077013  2 O  s          
     5     -3.003478  1 N  s                 13      2.741694  1 N  py         
    34     -2.237808  1 N  dyz              115     -2.074993  3 O  s          
   123      1.889375  3 O  py                16     -1.665321  1 N  py         

 Vector   33  Occ=0.000000D+00  E= 3.526428D-01
              MO Center=  3.7D-02,  7.3D-02,  1.1D-01, r^2= 7.7D+00
   Bfn.  Coefficient  Atom+Function         Bfn.  Coefficient  Atom+Function  
  ----- ------------  ---------------      ----- ------------  ---------------
    60      7.623643  2 O  s                  4     -5.561531  1 N  s          
   115      4.954169  3 O  s                 14      3.892485  1 N  pz         
    59      3.874273  2 O  s                 35     -3.673915  1 N  dzz        
    33     -3.474338  1 N  dyy                5     -3.351442  1 N  s          
   114      3.205091  3 O  s                168     -2.756926  4 H  s          

 Vector   34  Occ=0.000000D+00  E= 3.590272D-01
              MO Center= -4.6D-03, -2.9D-02, -2.1D-01, r^2= 4.7D+00
   Bfn.  Coefficient  Atom+Function         Bfn.  Coefficient  Atom+Function  
  ----- ------------  ---------------      ----- ------------  ---------------
    32      2.114503  1 N  dxz               34     -1.239601  1 N  dyz        
    67      1.176204  2 O  px                12     -1.086602  1 N  px         
    15     -0.870687  1 N  px                13      0.648827  1 N  py         
   176      0.617009  4 H  px                68     -0.595361  2 O  py         
    16      0.511633  1 N  py                87      0.511978  2 O  dxz        

 Vector   35  Occ=0.000000D+00  E= 3.814188D-01
              MO Center=  1.6D-02,  2.8D-02,  1.6D-01, r^2= 6.1D+00
   Bfn.  Coefficient  Atom+Function         Bfn.  Coefficient  Atom+Function  
  ----- ------------  ---------------      ----- ------------  ---------------
     4      8.361305  1 N  s                 59     -5.454364  2 O  s          
   114     -4.166547  3 O  s                 31      2.477578  1 N  dxy        
   123     -2.022277  3 O  py                68      1.997538  2 O  py         
    14     -1.684711  1 N  pz                30     -1.579478  1 N  dxx        
    71     -1.484080  2 O  py               167      1.484582  4 H  s          

 Vector   36  Occ=0.000000D+00  E= 4.053438D-01
              MO Center=  1.6D-01,  2.9D-01, -1.7D-02, r^2= 5.3D+00
   Bfn.  Coefficient  Atom+Function         Bfn.  Coefficient  Atom+Function  
  ----- ------------  ---------------      ----- ------------  ---------------
    12      3.394622  1 N  px                13     -1.998480  1 N  py         
    51     -1.082886  1 N  fxzz              46     -1.039408  1 N  fxxx       
    49     -1.043918  1 N  fxyy              15     -0.784090  1 N  px         
    31      0.711672  1 N  dxy               47      0.659690  1 N  fxxy       
    54      0.616260  1 N  fyzz              33     -0.596396  1 N  dyy        

 Vector   37  Occ=0.000000D+00  E= 4.161532D-01
              MO Center=  2.9D-01,  5.0D-01, -4.6D-01, r^2= 7.5D+00
   Bfn.  Coefficient  Atom+Function         Bfn.  Coefficient  Atom+Function  
  ----- ------------  ---------------      ----- ------------  ---------------
   168     15.525779  4 H  s                 60     -7.604394  2 O  s          
   167     -4.945566  4 H  s                 59     -4.820676  2 O  s          
    72      4.726598  2 O  pz                 4      4.536087  1 N  s          
    13      3.861087  1 N  py                34     -3.706077  1 N  dyz        
    68      3.092000  2 O  py                69     -2.963644  2 O  pz         

 Vector   38  Occ=0.000000D+00  E= 4.315526D-01
              MO Center=  5.6D-02,  8.7D-02, -2.3D-01, r^2= 7.0D+00
   Bfn.  Coefficient  Atom+Function         Bfn.  Coefficient  Atom+Function  
  ----- ------------  ---------------      ----- ------------  ---------------
   168     14.975346  4 H  s                 60    -12.398057  2 O  s          
   114    -10.603064  3 O  s                 13     -9.937004  1 N  py         
    59      6.917253  2 O  s                 34      6.427725  1 N  dyz        
   123     -6.035470  3 O  py                 4      5.798308  1 N  s          
    12     -5.668819  1 N  px                 5      4.621977  1 N  s          

 Vector   39  Occ=0.000000D+00  E= 4.420013D-01
              MO Center= -5.0D-02, -8.3D-02,  1.5D-01, r^2= 5.3D+00
   Bfn.  Coefficient  Atom+Function         Bfn.  Coefficient  Atom+Function  
  ----- ------------  ---------------      ----- ------------  ---------------
    31      2.335148  1 N  dxy               33     -1.999097  1 N  dyy        
    30      1.982465  1 N  dxx              122      1.792300  3 O  px         
    12     -1.379588  1 N  px                70     -1.345830  2 O  px         
    67     -1.286529  2 O  px               123     -1.030302  3 O  py         
    32      0.815778  1 N  dxz               13      0.781220  1 N  py         

 Vector   40  Occ=0.000000D+00  E= 5.180099D-01
              MO Center= -1.0D-02, -2.2D-02, -3.0D-01, r^2= 7.5D+00
   Bfn.  Coefficient  Atom+Function         Bfn.  Coefficient  Atom+Function  
  ----- ------------  ---------------      ----- ------------  ---------------
     4     15.459031  1 N  s                114    -10.296055  3 O  s          
   168     -9.262921  4 H  s                 13     -6.663913  1 N  py         
    14     -5.451707  1 N  pz               123     -5.344730  3 O  py         
   124     -4.681373  3 O  pz                 5      4.551000  1 N  s          
    31      4.061347  1 N  dxy               12     -3.730763  1 N  px         

 Vector   41  Occ=0.000000D+00  E= 5.326544D-01
              MO Center=  6.3D-01,  9.7D-01, -1.0D+00, r^2= 4.5D+00
   Bfn.  Coefficient  Atom+Function         Bfn.  Coefficient  Atom+Function  
  ----- ------------  ---------------      ----- ------------  ---------------
     4      4.591377  1 N  s                 59     -3.245350  2 O  s          
    67      2.451775  2 O  px                13      1.999500  1 N  py         
    12      1.884293  1 N  px                88     -1.849913  2 O  dyy        
    32     -1.784328  1 N  dxz               89      1.521778  2 O  dyz        
    14     -1.464448  1 N  pz                60     -1.290464  2 O  s          

 Vector   42  Occ=0.000000D+00  E= 5.334313D-01
              MO Center=  3.1D-01,  6.1D-01, -4.5D-01, r^2= 6.6D+00
   Bfn.  Coefficient  Atom+Function         Bfn.  Coefficient  Atom+Function  
  ----- ------------  ---------------      ----- ------------  ---------------
     4     25.907446  1 N  s                 59    -18.337078  2 O  s          
    13     13.143496  1 N  py                68     10.501368  2 O  py         
    14     -8.644250  1 N  pz                12      7.570727  1 N  px         
    69     -7.386621  2 O  pz                60     -6.545451  2 O  s          
    88     -5.980253  2 O  dyy               67      5.824232  2 O  px         

 Vector   43  Occ=0.000000D+00  E= 5.425523D-01
              MO Center=  4.9D-02,  6.1D-02, -7.3D-01, r^2= 5.1D+00
   Bfn.  Coefficient  Atom+Function         Bfn.  Coefficient  Atom+Function  
  ----- ------------  ---------------      ----- ------------  ---------------
     4     20.541778  1 N  s                114    -12.427550  3 O  s          
    14     -8.084515  1 N  pz               123     -7.712750  3 O  py         
    13     -5.827417  1 N  py                60      5.264102  2 O  s          
    59     -4.671555  2 O  s                122     -4.382632  3 O  px         
   168     -4.146646  4 H  s                143     -3.769028  3 O  dyy        

 Vector   44  Occ=0.000000D+00  E= 5.589894D-01
              MO Center= -5.0D-02, -9.4D-02, -2.5D-01, r^2= 6.8D+00
   Bfn.  Coefficient  Atom+Function         Bfn.  Coefficient  Atom+Function  
  ----- ------------  ---------------      ----- ------------  ---------------
    60     17.368820  2 O  s                168    -13.680355  4 H  s          
     5     -7.706683  1 N  s                 14     -6.926405  1 N  pz         
   114      5.396290  3 O  s                 68      4.136896  2 O  py         
    13      4.107393  1 N  py                33     -3.991696  1 N  dyy        
    31     -3.779744  1 N  dxy              178     -3.788211  4 H  pz         

 Vector   45  Occ=0.000000D+00  E= 5.914616D-01
              MO Center= -3.0D-01, -5.6D-01, -1.0D+00, r^2= 4.9D+00
   Bfn.  Coefficient  Atom+Function         Bfn.  Coefficient  Atom+Function  
  ----- ------------  ---------------      ----- ------------  ---------------
   122      1.940315  3 O  px                87     -1.571318  2 O  dxz        
    67      1.264073  2 O  px                32      1.154250  1 N  dxz        
   123     -1.150634  3 O  py               142     -1.155641  3 O  dxz        
    12     -1.111656  1 N  px               176     -1.078000  4 H  px         
   187     -0.907348  4 H  dxz               89      0.895846  2 O  dyz        

 Vector   46  Occ=0.000000D+00  E= 6.002579D-01
              MO Center= -2.9D-01, -5.3D-01, -7.3D-01, r^2= 5.5D+00
   Bfn.  Coefficient  Atom+Function         Bfn.  Coefficient  Atom+Function  
  ----- ------------  ---------------      ----- ------------  ---------------
     4      9.920810  1 N  s                114     -7.278802  3 O  s          
    13     -4.123063  1 N  py               124     -3.613073  3 O  pz         
   123     -3.313412  3 O  py                34      3.148315  1 N  dyz        
   143     -2.552684  3 O  dyy               12     -2.373382  1 N  px         
    32      1.850340  1 N  dxz              122     -1.857489  3 O  px         

 Vector   47  Occ=0.000000D+00  E= 6.098490D-01
              MO Center=  3.4D-02,  3.9D-02, -6.3D-01, r^2= 6.6D+00
   Bfn.  Coefficient  Atom+Function         Bfn.  Coefficient  Atom+Function  
  ----- ------------  ---------------      ----- ------------  ---------------
    87      2.294387  2 O  dxz               70     -2.104294  2 O  px         
    15      2.016691  1 N  px                32     -2.009907  1 N  dxz        
   176      1.957290  4 H  px               125     -1.537440  3 O  px         
    67     -1.424435  2 O  px                89     -1.300420  2 O  dyz        
   187      1.239427  4 H  dxz               71      1.206727  2 O  py         

 Vector   48  Occ=0.000000D+00  E= 6.647792D-01
              MO Center= -1.9D-01, -3.4D-01, -5.2D-01, r^2= 4.5D+00
   Bfn.  Coefficient  Atom+Function         Bfn.  Coefficient  Atom+Function  
  ----- ------------  ---------------      ----- ------------  ---------------
   142      1.435431  3 O  dxz               31      1.071096  1 N  dxy        
    30      0.937303  1 N  dxx               33     -0.911655  1 N  dyy        
   144     -0.849335  3 O  dyz               32     -0.753742  1 N  dxz        
   187     -0.663182  4 H  dxz               67     -0.657024  2 O  px         
   141     -0.639306  3 O  dxy              122      0.630823  3 O  px         

 Vector   49  Occ=0.000000D+00  E= 6.763715D-01
              MO Center= -5.3D-02, -1.2D-01, -7.3D-01, r^2= 5.9D+00
   Bfn.  Coefficient  Atom+Function         Bfn.  Coefficient  Atom+Function  
  ----- ------------  ---------------      ----- ------------  ---------------
   168    -12.779883  4 H  s                 60     12.333801  2 O  s          
     5     -6.021094  1 N  s                167      4.395767  4 H  s          
   115      4.146441  3 O  s                 89     -3.110384  2 O  dyz        
    69      2.997663  2 O  pz                14     -2.663021  1 N  pz         
   178     -2.628241  4 H  pz               123     -2.160604  3 O  py         

 Vector   50  Occ=0.000000D+00  E= 7.102993D-01
              MO Center=  1.5D-02,  1.0D-02, -4.6D-01, r^2= 7.7D+00
   Bfn.  Coefficient  Atom+Function         Bfn.  Coefficient  Atom+Function  
  ----- ------------  ---------------      ----- ------------  ---------------
    60     12.440990  2 O  s                115     -8.173989  3 O  s          
   167     -4.818400  4 H  s                 59      4.695961  2 O  s          
     5     -4.487371  1 N  s                 16     -3.990807  1 N  py         
     4     -3.783799  1 N  s                 85     -2.463697  2 O  dxx        
    88     -2.325192  2 O  dyy               15     -2.302663  1 N  px         

 Vector   51  Occ=0.000000D+00  E= 7.353947D-01
              MO Center=  1.2D-01,  1.6D-01, -1.1D+00, r^2= 5.7D+00
   Bfn.  Coefficient  Atom+Function         Bfn.  Coefficient  Atom+Function  
  ----- ------------  ---------------      ----- ------------  ---------------
   115      7.532407  3 O  s                167     -6.797519  4 H  s          
     5     -6.395728  1 N  s                 14     -5.744108  1 N  pz         
    59      4.900536  2 O  s                175     -2.424240  4 H  pz         
    35      2.335636  1 N  dzz               68      2.265857  2 O  py         
   190     -2.043207  4 H  dzz              140     -1.971852  3 O  dxx        

 Vector   52  Occ=0.000000D+00  E= 7.512595D-01
              MO Center=  1.8D-01,  2.7D-01, -8.7D-01, r^2= 7.8D+00
   Bfn.  Coefficient  Atom+Function         Bfn.  Coefficient  Atom+Function  
  ----- ------------  ---------------      ----- ------------  ---------------
     5     21.092837  1 N  s                 60    -16.204575  2 O  s          
   115    -14.039607  3 O  s                 14     -5.679999  1 N  pz         
    71      3.796394  2 O  py                17     -3.390986  1 N  pz         
   114     -2.701065  3 O  s                 33      2.485876  1 N  dyy        
    89     -2.314598  2 O  dyz               31      2.234465  1 N  dxy        

 Vector   53  Occ=0.000000D+00  E= 7.540406D-01
              MO Center=  3.7D-01,  6.4D-01, -8.0D-01, r^2= 4.2D+00
   Bfn.  Coefficient  Atom+Function         Bfn.  Coefficient  Atom+Function  
  ----- ------------  ---------------      ----- ------------  ---------------
    12      3.549755  1 N  px                67     -2.881349  2 O  px         
    13     -2.133823  1 N  py               122     -1.906430  3 O  px         
    68      1.633621  2 O  py                32     -1.595429  1 N  dxz        
    87     -1.369105  2 O  dxz              123      1.044799  3 O  py         
    34      1.005076  1 N  dyz              141     -0.873514  3 O  dxy        

 Vector   54  Occ=0.000000D+00  E= 7.887535D-01
              MO Center=  4.9D-01,  8.1D-01, -1.3D+00, r^2= 5.1D+00
   Bfn.  Coefficient  Atom+Function         Bfn.  Coefficient  Atom+Function  
  ----- ------------  ---------------      ----- ------------  ---------------
    59     17.584341  2 O  s                  4    -13.045211  1 N  s          
    13     -9.757465  1 N  py                60      8.446761  2 O  s          
    14      8.138386  1 N  pz                68     -6.959739  2 O  py         
   168     -6.137813  4 H  s                 12     -5.769660  1 N  px         
    34      4.037311  1 N  dyz               67     -3.954082  2 O  px         

 Vector   55  Occ=0.000000D+00  E= 8.169787D-01
              MO Center=  2.8D-01,  4.5D-01, -1.0D+00, r^2= 4.1D+00
   Bfn.  Coefficient  Atom+Function         Bfn.  Coefficient  Atom+Function  
  ----- ------------  ---------------      ----- ------------  ---------------
    67      2.691343  2 O  px               187      1.917480  4 H  dxz        
    13      1.802219  1 N  py                31     -1.648935  1 N  dxy        
    30     -1.454965  1 N  dxx               34     -1.419667  1 N  dyz        
   123      1.405619  3 O  py               122     -1.316987  3 O  px         
    86     -1.234079  2 O  dxy               68     -1.152059  2 O  py         

 Vector   56  Occ=0.000000D+00  E= 8.216388D-01
              MO Center=  1.1D-01,  1.9D-01, -2.0D-01, r^2= 5.6D+00
   Bfn.  Coefficient  Atom+Function         Bfn.  Coefficient  Atom+Function  
  ----- ------------  ---------------      ----- ------------  ---------------
    13     13.455272  1 N  py               114     12.927332  3 O  s          
    34     -8.444316  1 N  dyz               12      7.694166  1 N  px         
    14      7.730626  1 N  pz               123      6.823002  3 O  py         
   168      6.250662  4 H  s                167     -5.271739  4 H  s          
    32     -4.872428  1 N  dxz               60     -4.710632  2 O  s          

 Vector   57  Occ=0.000000D+00  E= 8.428383D-01
              MO Center=  3.3D-01,  5.5D-01, -8.4D-01, r^2= 5.6D+00
   Bfn.  Coefficient  Atom+Function         Bfn.  Coefficient  Atom+Function  
  ----- ------------  ---------------      ----- ------------  ---------------
    13      8.399410  1 N  py                59     -8.355534  2 O  s          
    33      5.010361  1 N  dyy               12      4.920417  1 N  px         
    31      4.907515  1 N  dxy              168      4.902016  4 H  s          
    14     -4.404549  1 N  pz                 4      4.152019  1 N  s          
    34     -4.051744  1 N  dyz               69     -3.370296  2 O  pz         

 Vector   58  Occ=0.000000D+00  E= 9.028872D-01
              MO Center=  4.2D-02,  6.7D-02, -4.8D-01, r^2= 4.7D+00
   Bfn.  Coefficient  Atom+Function         Bfn.  Coefficient  Atom+Function  
  ----- ------------  ---------------      ----- ------------  ---------------
   122      5.554580  3 O  px                12     -4.120717  1 N  px         
   123     -3.249567  3 O  py                32      2.667877  1 N  dxz        
    31      2.443686  1 N  dxy              142      2.135850  3 O  dxz        
    13      2.080744  1 N  py                30      2.007193  1 N  dxx        
    33     -2.009384  1 N  dyy              141      2.000638  3 O  dxy        

 Vector   59  Occ=0.000000D+00  E= 9.087656D-01
              MO Center=  6.9D-02,  9.0D-02, -5.7D-01, r^2= 6.0D+00
   Bfn.  Coefficient  Atom+Function         Bfn.  Coefficient  Atom+Function  
  ----- ------------  ---------------      ----- ------------  ---------------
    13     18.258199  1 N  py               114     10.806504  3 O  s          
    12     10.470652  1 N  px               168      7.582013  4 H  s          
    59     -7.172000  2 O  s                 34     -6.968328  1 N  dyz        
   124      4.682079  3 O  pz                32     -4.004888  1 N  dxz        
   145      3.733109  3 O  dzz               54     -3.153909  1 N  fyzz       

 Vector   60  Occ=0.000000D+00  E= 9.360357D-01
              MO Center=  2.9D-01,  4.8D-01, -6.1D-01, r^2= 4.4D+00
   Bfn.  Coefficient  Atom+Function         Bfn.  Coefficient  Atom+Function  
  ----- ------------  ---------------      ----- ------------  ---------------
    67      5.526143  2 O  px                68     -3.124442  2 O  py         
    12     -2.890301  1 N  px                86     -2.194781  2 O  dxy        
    31     -2.169473  1 N  dxy               13      2.042132  1 N  py         
    85     -2.002899  2 O  dxx               33      1.931630  1 N  dyy        
    88      1.927296  2 O  dyy               30     -1.897853  1 N  dxx        

 Vector   61  Occ=0.000000D+00  E= 9.453026D-01
              MO Center=  2.9D-01,  4.8D-01, -4.9D-01, r^2= 5.4D+00
   Bfn.  Coefficient  Atom+Function         Bfn.  Coefficient  Atom+Function  
  ----- ------------  ---------------      ----- ------------  ---------------
   168    -14.876167  4 H  s                 13     13.975466  1 N  py         
   114     10.697031  3 O  s                  4    -10.506883  1 N  s          
    60      9.032541  2 O  s                 12      7.961676  1 N  px         
   123      7.606269  3 O  py                14      5.198949  1 N  pz         
    69     -4.964586  2 O  pz                59     -4.914062  2 O  s          

 Vector   62  Occ=0.000000D+00  E= 1.018856D+00
              MO Center=  3.8D-01,  6.4D-01, -9.9D-01, r^2= 5.2D+00
   Bfn.  Coefficient  Atom+Function         Bfn.  Coefficient  Atom+Function  
  ----- ------------  ---------------      ----- ------------  ---------------
   168     18.579605  4 H  s                  4    -10.259169  1 N  s          
    60     -9.984400  2 O  s                167     -9.076554  4 H  s          
    69     -8.725555  2 O  pz               114      6.976294  3 O  s          
    14      6.358578  1 N  pz               185     -4.893095  4 H  dxx        
    90      4.732964  2 O  dzz              123      4.731171  3 O  py         

 Vector   63  Occ=0.000000D+00  E= 1.063647D+00
              MO Center=  1.5D-01,  2.3D-01, -9.7D-01, r^2= 4.8D+00
   Bfn.  Coefficient  Atom+Function         Bfn.  Coefficient  Atom+Function  
  ----- ------------  ---------------      ----- ------------  ---------------
    69      8.008726  2 O  pz               167      6.727078  4 H  s          
   168     -6.099660  4 H  s                124      5.764403  3 O  pz         
    90     -5.147795  2 O  dzz               59     -4.026149  2 O  s          
    60      3.998064  2 O  s                188      3.518959  4 H  dyy        
    33     -3.278083  1 N  dyy                4      3.106843  1 N  s          

 Vector   64  Occ=0.000000D+00  E= 1.116356D+00
              MO Center=  9.6D-02,  1.7D-01, -8.0D-02, r^2= 4.6D+00
   Bfn.  Coefficient  Atom+Function         Bfn.  Coefficient  Atom+Function  
  ----- ------------  ---------------      ----- ------------  ---------------
     4     34.559372  1 N  s                 59    -21.151828  2 O  s          
   114    -14.365138  3 O  s                 60    -12.000028  2 O  s          
   168     10.921958  4 H  s                 31     10.154908  1 N  dxy        
   124     -9.160829  3 O  pz                90     -8.686015  2 O  dzz        
   167      7.886083  4 H  s                 33      7.744818  1 N  dyy        

 Vector   65  Occ=0.000000D+00  E= 1.150522D+00
              MO Center=  2.2D-01,  3.7D-01, -3.8D-01, r^2= 4.4D+00
   Bfn.  Coefficient  Atom+Function         Bfn.  Coefficient  Atom+Function  
  ----- ------------  ---------------      ----- ------------  ---------------
     4     29.379641  1 N  s                 68     17.616449  2 O  py         
    59    -15.845593  2 O  s                 69    -15.023802  2 O  pz         
    13     10.877770  1 N  py                67     10.381588  2 O  px         
   167    -10.384389  4 H  s                168     -7.601150  4 H  s          
    60      7.545988  2 O  s                 88     -7.541045  2 O  dyy        

 Vector   66  Occ=0.000000D+00  E= 1.163067D+00
              MO Center= -8.2D-02, -1.5D-01, -2.3D-01, r^2= 5.0D+00
   Bfn.  Coefficient  Atom+Function         Bfn.  Coefficient  Atom+Function  
  ----- ------------  ---------------      ----- ------------  ---------------
     4     32.935857  1 N  s                114    -26.626123  3 O  s          
   123    -19.767977  3 O  py                13    -17.236613  1 N  py         
   124    -13.528376  3 O  pz               122    -11.108932  3 O  px         
    59      9.927751  2 O  s                 12     -9.787367  1 N  px         
   143     -8.334901  3 O  dyy              167     -6.997133  4 H  s          

 Vector   67  Occ=0.000000D+00  E= 1.215027D+00
              MO Center= -7.6D-02, -1.8D-01, -5.8D-01, r^2= 4.8D+00
   Bfn.  Coefficient  Atom+Function         Bfn.  Coefficient  Atom+Function  
  ----- ------------  ---------------      ----- ------------  ---------------
     4     20.015999  1 N  s                123    -13.254300  3 O  py         
   114    -10.747984  3 O  s                 13     -9.511915  1 N  py         
   122     -7.555619  3 O  px               143     -6.351012  3 O  dyy        
    69     -6.290381  2 O  pz                14     -5.682694  1 N  pz         
    12     -5.264808  1 N  px               167     -5.090435  4 H  s          

 Vector   68  Occ=0.000000D+00  E= 1.221597D+00
              MO Center=  2.3D-02,  7.1D-02,  2.3D-01, r^2= 2.9D+00
   Bfn.  Coefficient  Atom+Function         Bfn.  Coefficient  Atom+Function  
  ----- ------------  ---------------      ----- ------------  ---------------
    12      4.158382  1 N  px                51     -2.405273  1 N  fxzz       
    49     -2.355199  1 N  fxyy              46     -2.300460  1 N  fxxx       
    13     -1.555676  1 N  py                52      1.530129  1 N  fyyy       
    54      1.279856  1 N  fyzz              15     -0.824945  1 N  px         
   173     -0.590171  4 H  px               187     -0.584293  4 H  dxz        

 Vector   69  Occ=0.000000D+00  E= 1.231344D+00
              MO Center=  3.6D-01,  6.3D-01, -2.0D-01, r^2= 4.6D+00
   Bfn.  Coefficient  Atom+Function         Bfn.  Coefficient  Atom+Function  
  ----- ------------  ---------------      ----- ------------  ---------------
     4     47.837057  1 N  s                 59    -29.529075  2 O  s          
    68     24.901220  2 O  py                13     23.604987  1 N  py         
    69    -18.888485  2 O  pz                67     14.615861  2 O  px         
    12     13.683081  1 N  px                14    -12.928269  1 N  pz         
    88    -12.501839  2 O  dyy               60    -10.555820  2 O  s          

 Vector   70  Occ=0.000000D+00  E= 1.255212D+00
              MO Center=  1.5D-01,  2.3D-01, -6.6D-01, r^2= 3.2D+00
   Bfn.  Coefficient  Atom+Function         Bfn.  Coefficient  Atom+Function  
  ----- ------------  ---------------      ----- ------------  ---------------
    87      2.394175  2 O  dxz              187      1.626534  4 H  dxz        
   173      1.521087  4 H  px                89     -1.302281  2 O  dyz        
    46     -1.290077  1 N  fxxx              49     -1.229601  1 N  fxyy       
    47      1.188080  1 N  fxxy              51     -1.152404  1 N  fxzz       
    86     -1.108400  2 O  dxy               26      1.030434  1 N  dxz        

 Vector   71  Occ=0.000000D+00  E= 1.310464D+00
              MO Center=  2.3D-01,  4.1D-01,  3.9D-02, r^2= 3.8D+00
   Bfn.  Coefficient  Atom+Function         Bfn.  Coefficient  Atom+Function  
  ----- ------------  ---------------      ----- ------------  ---------------
    13     12.619955  1 N  py               167    -12.265604  4 H  s          
    69    -10.466208  2 O  pz               168      9.639072  4 H  s          
   114      7.213324  3 O  s                 12      7.088794  1 N  px         
    90      6.943897  2 O  dzz               14      5.720700  1 N  pz         
    34     -4.611568  1 N  dyz                4     -4.533926  1 N  s          

 Vector   72  Occ=0.000000D+00  E= 1.327993D+00
              MO Center=  9.1D-02,  1.6D-01, -2.8D-01, r^2= 2.8D+00
   Bfn.  Coefficient  Atom+Function         Bfn.  Coefficient  Atom+Function  
  ----- ------------  ---------------      ----- ------------  ---------------
    67      2.771017  2 O  px                68     -1.521147  2 O  py         
    51     -1.362393  1 N  fxzz              86     -1.265594  2 O  dxy        
    12     -1.221742  1 N  px                50     -1.218016  1 N  fxyz       
    32      1.120863  1 N  dxz               53      1.112757  1 N  fyyz       
    85     -1.065715  2 O  dxx               88      1.037856  2 O  dyy        

 Vector   73  Occ=0.000000D+00  E= 1.368421D+00
              MO Center=  3.5D-01,  5.8D-01, -7.9D-01, r^2= 3.3D+00
   Bfn.  Coefficient  Atom+Function         Bfn.  Coefficient  Atom+Function  
  ----- ------------  ---------------      ----- ------------  ---------------
    87      4.073459  2 O  dxz               89     -2.352817  2 O  dyz        
   173      2.111173  4 H  px               187      1.900937  4 H  dxz        
   176      1.578573  4 H  px               122     -1.481616  3 O  px         
    67     -1.276204  2 O  px               174     -1.216965  4 H  py         
   189     -1.091547  4 H  dyz               31     -1.030351  1 N  dxy        

 Vector   74  Occ=0.000000D+00  E= 1.392546D+00
              MO Center=  1.9D-01,  3.1D-01, -6.7D-01, r^2= 3.9D+00
   Bfn.  Coefficient  Atom+Function         Bfn.  Coefficient  Atom+Function  
  ----- ------------  ---------------      ----- ------------  ---------------
     4     23.774146  1 N  s                 14    -10.232089  1 N  pz         
    59     -9.852315  2 O  s                 68      9.164984  2 O  py         
   114     -8.402308  3 O  s                168     -7.516109  4 H  s          
    67      5.287544  2 O  px               123     -4.409123  3 O  py         
    60      3.603559  2 O  s                124     -3.292070  3 O  pz         

 Vector   75  Occ=0.000000D+00  E= 1.493599D+00
              MO Center=  6.7D-02,  1.1D-01, -1.7D-01, r^2= 2.9D+00
   Bfn.  Coefficient  Atom+Function         Bfn.  Coefficient  Atom+Function  
  ----- ------------  ---------------      ----- ------------  ---------------
    12      2.381458  1 N  px                32     -2.344554  1 N  dxz        
    51      1.843160  1 N  fxzz             122     -1.656211  3 O  px         
    87      1.581475  2 O  dxz               47      1.547354  1 N  fxxy       
    13     -1.369630  1 N  py                34      1.335801  1 N  dyz        
    54     -1.115934  1 N  fyzz             123      0.977601  3 O  py         

 Vector   76  Occ=0.000000D+00  E= 1.506927D+00
              MO Center=  1.2D-01,  2.0D-01, -4.5D-01, r^2= 3.4D+00
   Bfn.  Coefficient  Atom+Function         Bfn.  Coefficient  Atom+Function  
  ----- ------------  ---------------      ----- ------------  ---------------
     4     14.723722  1 N  s                 59    -10.970716  2 O  s          
    14     -4.624193  1 N  pz                89      4.348131  2 O  dyz        
    68      3.572225  2 O  py               114     -3.207729  3 O  s          
   167      2.951856  4 H  s                 69     -2.849271  2 O  pz         
    87      2.582800  2 O  dxz               86     -2.513876  2 O  dxy        

 Vector   77  Occ=0.000000D+00  E= 1.530216D+00
              MO Center=  2.3D-02,  2.3D-02, -6.0D-01, r^2= 3.6D+00
   Bfn.  Coefficient  Atom+Function         Bfn.  Coefficient  Atom+Function  
  ----- ------------  ---------------      ----- ------------  ---------------
     4     10.813744  1 N  s                 60      6.558510  2 O  s          
    68      6.152284  2 O  py                14     -5.939148  1 N  pz         
     5     -4.010154  1 N  s                114     -3.915650  3 O  s          
   167     -3.611973  4 H  s                 67      3.525510  2 O  px         
    88     -3.470676  2 O  dyy               59      3.203813  2 O  s          

 Vector   78  Occ=0.000000D+00  E= 1.538811D+00
              MO Center=  4.3D-02,  6.1D-02, -3.6D-01, r^2= 3.3D+00
   Bfn.  Coefficient  Atom+Function         Bfn.  Coefficient  Atom+Function  
  ----- ------------  ---------------      ----- ------------  ---------------
    50      2.374839  1 N  fxyz              53     -2.028035  1 N  fyyz       
    48      2.010525  1 N  fxxz              67      1.775578  2 O  px         
    25     -1.256409  1 N  dxy               31     -1.226306  1 N  dxy        
    68     -1.180762  2 O  py                86     -1.170143  2 O  dxy        
   141     -1.138681  3 O  dxy               33      1.102644  1 N  dyy        

 Vector   79  Occ=0.000000D+00  E= 1.601390D+00
              MO Center= -1.3D-01, -2.3D-01, -5.1D-01, r^2= 3.2D+00
   Bfn.  Coefficient  Atom+Function         Bfn.  Coefficient  Atom+Function  
  ----- ------------  ---------------      ----- ------------  ---------------
    47      3.084702  1 N  fxxy              12      2.440078  1 N  px         
    67     -1.821326  2 O  px                52     -1.778198  1 N  fyyy       
   142     -1.725896  3 O  dxz               13     -1.618502  1 N  py         
    26     -1.356965  1 N  dxz              161     -1.095939  3 O  fxzz       
    87     -1.077471  2 O  dxz              141     -1.062837  3 O  dxy        

 Vector   80  Occ=0.000000D+00  E= 1.605077D+00
              MO Center=  2.1D-01,  3.3D-01, -8.4D-01, r^2= 3.8D+00
   Bfn.  Coefficient  Atom+Function         Bfn.  Coefficient  Atom+Function  
  ----- ------------  ---------------      ----- ------------  ---------------
   167     21.398364  4 H  s                  4     15.532316  1 N  s          
    59    -13.477753  2 O  s                114    -12.698346  3 O  s          
    69     11.312165  2 O  pz               123     -8.200275  3 O  py         
   175      6.144081  4 H  pz               168     -5.778060  4 H  s          
    13     -5.581943  1 N  py                90     -5.384254  2 O  dzz        

 Vector   81  Occ=0.000000D+00  E= 1.637480D+00
              MO Center= -1.2D-01, -2.2D-01, -5.6D-01, r^2= 3.8D+00
   Bfn.  Coefficient  Atom+Function         Bfn.  Coefficient  Atom+Function  
  ----- ------------  ---------------      ----- ------------  ---------------
     4     11.855868  1 N  s                 60      6.753777  2 O  s          
     5     -6.278491  1 N  s                 13     -4.488001  1 N  py         
    54      4.159084  1 N  fyzz              68      3.656544  2 O  py         
    88     -3.645487  2 O  dyy               86     -3.027084  2 O  dxy        
    12     -2.613100  1 N  px               123     -2.602594  3 O  py         

 Vector   82  Occ=0.000000D+00  E= 1.693805D+00
              MO Center=  1.3D-01,  2.2D-01, -2.8D-01, r^2= 3.5D+00
   Bfn.  Coefficient  Atom+Function         Bfn.  Coefficient  Atom+Function  
  ----- ------------  ---------------      ----- ------------  ---------------
     4     27.229999  1 N  s                 59    -17.733258  2 O  s          
    68     16.798576  2 O  py                69    -15.876603  2 O  pz         
    13     11.047615  1 N  py                67      9.912102  2 O  px         
    89      8.310052  2 O  dyz               88     -7.579182  2 O  dyy        
    12      6.286806  1 N  px                85     -4.901600  2 O  dxx        

 Vector   83  Occ=0.000000D+00  E= 1.735810D+00
              MO Center=  2.3D-01,  3.9D-01, -4.1D-01, r^2= 3.3D+00
   Bfn.  Coefficient  Atom+Function         Bfn.  Coefficient  Atom+Function  
  ----- ------------  ---------------      ----- ------------  ---------------
    67      3.239858  2 O  px                68     -1.718281  2 O  py         
    12     -1.695828  1 N  px               101     -1.673677  2 O  fxxx       
   104     -1.679756  2 O  fxyy             106     -1.614586  2 O  fxzz       
   107      1.208743  2 O  fyyy              13      1.023162  1 N  py         
    87      1.021594  2 O  dxz              109      0.918100  2 O  fyzz       

 Vector   84  Occ=0.000000D+00  E= 1.753767D+00
              MO Center=  5.4D-02,  7.5D-02, -3.7D-01, r^2= 4.1D+00
   Bfn.  Coefficient  Atom+Function         Bfn.  Coefficient  Atom+Function  
  ----- ------------  ---------------      ----- ------------  ---------------
     4      8.801898  1 N  s                  5     -7.168798  1 N  s          
    60      6.371053  2 O  s                124     -6.086044  3 O  pz         
    59      5.752993  2 O  s                115      5.497215  3 O  s          
    90     -4.456370  2 O  dzz               50      4.071682  1 N  fxyz       
   123     -3.888029  3 O  py               143     -3.559319  3 O  dyy        

 Vector   85  Occ=0.000000D+00  E= 1.798939D+00
              MO Center= -1.8D-01, -3.3D-01, -6.5D-01, r^2= 3.0D+00
   Bfn.  Coefficient  Atom+Function         Bfn.  Coefficient  Atom+Function  
  ----- ------------  ---------------      ----- ------------  ---------------
   122      4.189436  3 O  px               123     -2.446408  3 O  py         
   161     -1.784925  3 O  fxzz             156     -1.716962  3 O  fxxx       
   159     -1.718457  3 O  fxyy              12     -1.558961  1 N  px         
    67     -1.196318  2 O  px               162      1.101928  3 O  fyyy       
    47     -1.047198  1 N  fxxy             164      1.052255  3 O  fyzz       

 Vector   86  Occ=0.000000D+00  E= 1.830778D+00
              MO Center=  1.7D-01,  2.7D-01, -8.1D-01, r^2= 4.0D+00
   Bfn.  Coefficient  Atom+Function         Bfn.  Coefficient  Atom+Function  
  ----- ------------  ---------------      ----- ------------  ---------------
    13     17.250303  1 N  py                12      9.930216  1 N  px         
   114      8.021161  3 O  s                 68      7.556102  2 O  py         
    69     -6.053847  2 O  pz                 4      5.804964  1 N  s          
    34     -5.471581  1 N  dyz              124      5.208869  3 O  pz         
   167     -5.164289  4 H  s                 59     -4.593803  2 O  s          

 Vector   87  Occ=0.000000D+00  E= 1.858408D+00
              MO Center= -2.9D-01, -5.3D-01, -5.4D-01, r^2= 2.3D+00
   Bfn.  Coefficient  Atom+Function         Bfn.  Coefficient  Atom+Function  
  ----- ------------  ---------------      ----- ------------  ---------------
    12      1.915193  1 N  px               122     -1.491272  3 O  px         
   157     -1.350782  3 O  fxxy              67     -1.161610  2 O  px         
   123      1.059251  3 O  py                47      0.979983  1 N  fxxy       
   102     -0.899481  2 O  fxxy             161     -0.903150  3 O  fxzz       
   159      0.841560  3 O  fxyy             156      0.832239  3 O  fxxx       

 Vector   88  Occ=0.000000D+00  E= 1.887819D+00
              MO Center= -2.3D-02, -5.3D-02, -4.5D-01, r^2= 3.6D+00
   Bfn.  Coefficient  Atom+Function         Bfn.  Coefficient  Atom+Function  
  ----- ------------  ---------------      ----- ------------  ---------------
     4     22.443944  1 N  s                114    -12.634050  3 O  s          
   123    -12.419930  3 O  py                14    -10.942689  1 N  pz         
   167      9.911129  4 H  s                 59     -8.215019  2 O  s          
   124     -8.231197  3 O  pz                13     -7.359366  1 N  py         
    90     -7.157322  2 O  dzz              122     -7.014654  3 O  px         

 Vector   89  Occ=0.000000D+00  E= 1.932390D+00
              MO Center= -1.8D-02, -3.7D-02, -1.7D-01, r^2= 3.5D+00
   Bfn.  Coefficient  Atom+Function         Bfn.  Coefficient  Atom+Function  
  ----- ------------  ---------------      ----- ------------  ---------------
    59      7.853698  2 O  s                 69     -6.634991  2 O  pz         
   167     -5.821416  4 H  s                 60      5.141841  2 O  s          
    34      3.501137  1 N  dyz               13     -3.307778  1 N  py         
   124      3.144814  3 O  pz                68     -2.641701  2 O  py         
   123     -2.574309  3 O  py               114     -2.360589  3 O  s          

 Vector   90  Occ=0.000000D+00  E= 1.955220D+00
              MO Center=  1.4D-01,  2.4D-01, -5.1D-01, r^2= 3.6D+00
   Bfn.  Coefficient  Atom+Function         Bfn.  Coefficient  Atom+Function  
  ----- ------------  ---------------      ----- ------------  ---------------
     4     39.114453  1 N  s                123    -13.412168  3 O  py         
    14    -13.245229  1 N  pz                68     12.433988  2 O  py         
    59    -12.345945  2 O  s                114    -10.357751  3 O  s          
   122     -7.583885  3 O  px                67      7.182828  2 O  px         
   143     -5.733495  3 O  dyy               88     -4.787867  2 O  dyy        

 Vector   91  Occ=0.000000D+00  E= 1.989662D+00
              MO Center= -1.9D-01, -3.4D-01, -5.7D-01, r^2= 3.0D+00
   Bfn.  Coefficient  Atom+Function         Bfn.  Coefficient  Atom+Function  
  ----- ------------  ---------------      ----- ------------  ---------------
    13     15.766629  1 N  py               114     10.936382  3 O  s          
    12      9.040441  1 N  px               123      8.205210  3 O  py         
    69     -7.482718  2 O  pz                68      6.042842  2 O  py         
    60      5.921254  2 O  s                 59     -5.865474  2 O  s          
    34     -5.495611  1 N  dyz              124      5.417414  3 O  pz         

 Vector   92  Occ=0.000000D+00  E= 2.012163D+00
              MO Center= -1.2D-01, -2.4D-01, -5.8D-01, r^2= 2.7D+00
   Bfn.  Coefficient  Atom+Function         Bfn.  Coefficient  Atom+Function  
  ----- ------------  ---------------      ----- ------------  ---------------
    67      4.743889  2 O  px                12     -3.853131  1 N  px         
    68     -2.806119  2 O  py                13      2.349777  1 N  py         
    32      2.287910  1 N  dxz              102      1.898697  2 O  fxxy       
    86     -1.852549  2 O  dxy               88      1.650668  2 O  dyy        
    85     -1.587151  2 O  dxx              122      1.594219  3 O  px         

 Vector   93  Occ=0.000000D+00  E= 2.062817D+00
              MO Center=  2.7D-01,  4.6D-01, -8.4D-01, r^2= 3.7D+00
   Bfn.  Coefficient  Atom+Function         Bfn.  Coefficient  Atom+Function  
  ----- ------------  ---------------      ----- ------------  ---------------
     4     20.645078  1 N  s                 59    -13.384088  2 O  s          
    60    -11.008614  2 O  s                  5     10.711589  1 N  s          
[...]
   112     -8.565526  3 O  s                  4     -8.494878  1 N  s          
   153     -6.369270  3 O  fyyz             155     -6.153216  3 O  fzzz       
   148     -6.096180  3 O  fxxz             158     -4.626099  3 O  fxxz       
   111     -4.472844  3 O  s                165     -4.138515  3 O  fzzz       

 Vector  184  Occ=0.000000D+00  E= 1.456977D+01
              MO Center=  6.6D-02,  9.6D-02, -6.1D-01, r^2= 2.3D+00
   Bfn.  Coefficient  Atom+Function         Bfn.  Coefficient  Atom+Function  
  ----- ------------  ---------------      ----- ------------  ---------------
    57      7.596047  2 O  s                120     -7.182736  3 O  py         
   123     -7.001752  3 O  py                10      5.951405  1 N  py         
    66      5.641666  2 O  pz               112      5.552831  3 O  s          
    60     -5.211536  2 O  s                  5      4.928270  1 N  s          
   121      4.850303  3 O  pz               154      4.489711  3 O  fyzz       

 Vector  185  Occ=0.000000D+00  E= 1.519603D+01
              MO Center=  4.6D-01,  7.9D-01, -6.0D-01, r^2= 1.9D+00
   Bfn.  Coefficient  Atom+Function         Bfn.  Coefficient  Atom+Function  
  ----- ------------  ---------------      ----- ------------  ---------------
    66     14.572319  2 O  pz                 4    -11.304345  1 N  s          
    57     -7.955330  2 O  s                 69      7.708677  2 O  pz         
   114      7.568499  3 O  s                124      7.462174  3 O  pz         
    93     -7.267140  2 O  fxxz              98     -7.197449  2 O  fyyz       
    13      6.855559  1 N  py               100     -6.464940  2 O  fzzz       

 Vector  186  Occ=0.000000D+00  E= 1.592867D+01
              MO Center=  2.9D-01,  4.8D-01, -5.9D-01, r^2= 2.4D+00
   Bfn.  Coefficient  Atom+Function         Bfn.  Coefficient  Atom+Function  
  ----- ------------  ---------------      ----- ------------  ---------------
     4     27.801826  1 N  s                 14    -13.802814  1 N  pz         
    68     11.937908  2 O  py                65     10.670284  2 O  py         
   123     -9.256922  3 O  py               114     -8.674664  3 O  s          
    57     -7.947472  2 O  s                 59     -7.234410  2 O  s          
    67      6.866968  2 O  px               124     -6.262232  3 O  pz         

 Vector  187  Occ=0.000000D+00  E= 1.633378D+01
              MO Center= -7.9D-02, -1.6D-01, -6.1D-01, r^2= 2.1D+00
   Bfn.  Coefficient  Atom+Function         Bfn.  Coefficient  Atom+Function  
  ----- ------------  ---------------      ----- ------------  ---------------
   114     15.083836  3 O  s                 13     13.321705  1 N  py         
   112      9.678192  3 O  s                  4     -8.932730  1 N  s          
   123      8.612101  3 O  py                12      7.473481  1 N  px         
   124      7.339439  3 O  pz                65      6.851067  2 O  py         
    69     -5.963823  2 O  pz                59     -5.845873  2 O  s          

 Vector  188  Occ=0.000000D+00  E= 1.692461D+01
              MO Center=  4.7D-01,  8.1D-01, -5.6D-01, r^2= 9.3D-01
   Bfn.  Coefficient  Atom+Function         Bfn.  Coefficient  Atom+Function  
  ----- ------------  ---------------      ----- ------------  ---------------
    59      8.794613  2 O  s                  4      8.388355  1 N  s          
    57      5.808813  2 O  s                 68      5.723739  2 O  py         
    65      5.569501  2 O  py                82     -5.539607  2 O  dyy        
    79     -5.438858  2 O  dxx               84     -5.232548  2 O  dzz        
    88     -4.904591  2 O  dyy               90     -4.663684  2 O  dzz        

 Vector  189  Occ=0.000000D+00  E= 1.713125D+01
              MO Center= -2.9D-01, -5.2D-01, -5.6D-01, r^2= 1.4D+00
   Bfn.  Coefficient  Atom+Function         Bfn.  Coefficient  Atom+Function  
  ----- ------------  ---------------      ----- ------------  ---------------
     4     14.578379  1 N  s                 13    -12.357493  1 N  py         
   123     -9.860011  3 O  py                14     -8.362606  1 N  pz         
   124     -8.376676  3 O  pz               143     -7.314506  3 O  dyy        
    12     -6.865801  1 N  px               145     -6.871113  3 O  dzz        
   140     -6.762297  3 O  dxx              115      6.092098  3 O  s          

 Vector  190  Occ=0.000000D+00  E= 2.137382D+01
              MO Center= -1.7D-01, -3.0D-01, -2.4D-01, r^2= 1.5D+00
   Bfn.  Coefficient  Atom+Function         Bfn.  Coefficient  Atom+Function  
  ----- ------------  ---------------      ----- ------------  ---------------
     2     19.274216  1 N  s                120    -10.929382  3 O  py         
   121    -10.466324  3 O  pz                11    -10.407385  1 N  pz         
     1      9.636991  1 N  s                 28      8.235066  1 N  dyz        
     4      8.053041  1 N  s                 10     -8.049840  1 N  py         
   114     -7.566513  3 O  s                138     -7.061984  3 O  dyz        


 center of mass
 --------------
 x =   0.08812112 y =   0.12745797 z =  -0.84318929

 moments of inertia (a.u.)
 ------------------
         127.857150443104         -60.592646886359           0.543350251822
         -60.592646886359          56.259211813107           0.109694730100
           0.543350251822           0.109694730100         140.771694296799

     Multipole analysis of the density
     ---------------------------------

     L   x y z        total         alpha         beta         nuclear
     -   - - -        -----         -----         ----         -------
     0   0 0 0     -0.000000    -12.000000    -12.000000     24.000000

     1   1 0 0      0.081310     -1.242550     -1.242550      2.566410
     1   0 1 0      0.120873     -1.844711     -1.844711      3.810295
     1   0 0 1     -0.558110     10.354383     10.354383    -21.266877

     2   2 0 0    -12.554442    -15.264626    -15.264626     17.974809
     2   1 1 0     -0.742208    -16.061850    -16.061850     31.381493
     2   1 0 1     -0.781425      1.339056      1.339056     -3.459537
     2   0 2 0    -13.499006    -34.162542    -34.162542     54.826078
     2   0 1 1     -1.315437      1.818179      1.818179     -4.951796
     2   0 0 2    -10.669376    -21.215968    -21.215968     31.762559

 Line search: 
     step= 1.00 grad=-7.0D-07 hess= 5.3D-07 energy=   -205.599441 mode=accept  
 new step= 1.00                   predicted energy=   -205.599441

          --------
          Step   8
          --------


                         Geometry "geometry" -> "geometry"
                         ---------------------------------

 Output coordinates in angstroms (scale by  1.889725989 to convert to a.u.)

  No.       Tag          Charge          X              Y              Z
 ---- ---------------- ---------- -------------- -------------- --------------
    1 N                    7.0000    -0.03416732    -0.05440795     0.06144669
    2 O                    8.0000     0.60739893     1.04530668    -0.57173846
    3 O                    8.0000    -0.47371597    -0.85418442    -0.69605099
    4 H                    1.0000     0.52779345     0.86819897    -1.54175845

      Atomic Mass 
      ----------- 

      N                 14.003070
      O                 15.994910
      H                  1.007825


 Effective nuclear repulsion energy (a.u.)      69.4485142235

            Nuclear Dipole moment (a.u.) 
            ----------------------------
        X                 Y               Z
 ---------------- ---------------- ----------------
     2.5664101545     3.8102949416   -21.2668766089


                                 NWChem DFT Module
                                 -----------------




 Summary of "ao basis" -> "ao basis" (cartesian)
 ------------------------------------------------------------------------------
       Tag                 Description            Shells   Functions and Types
 ---------------- ------------------------------  ------  ---------------------
 N                        aug-cc-pVTZ               14       55   5s4p3d2f
 O                        aug-cc-pVTZ               14       55   5s4p3d2f
 H                        aug-cc-pVTZ                9       25   4s3p2d



  The DFT is already converged 

         Total DFT energy =   -205.599440896934


            General Information
            -------------------
          SCF calculation type: DFT
          Wavefunction type:  closed shell.
          No. of atoms     :     4
          No. of electrons :    24
           Alpha electrons :    12
            Beta electrons :    12
          Charge           :     0
          Spin multiplicity:     1
          Use of symmetry is: off; symmetry adaption is: off
          Maximum number of iterations: 200
          AO basis - number of functions:   190
                     number of shells:    51
          Convergence on energy requested:  1.00D-06
          Convergence on density requested:  1.00D-05
          Convergence on gradient requested:  5.00D-04

              XC Information
              --------------
          PerdewBurkeErnzerhof Exchange Functional  1.000          
            Perdew 1991 LDA Correlation Functional  1.000 local    
           PerdewBurkeErnz. Correlation Functional  1.000 non-local

             Grid Information
             ----------------
          Grid used for XC integration:  medium    
          Radial quadrature: Mura-Knowles        
          Angular quadrature: Lebedev. 
          Tag              B.-S. Rad. Rad. Pts. Rad. Cut. Ang. Pts.
          ---              ---------- --------- --------- ---------
          N                   0.65       49          12.0       434
          O                   0.60       49          12.0       434
          H                   0.35       45          11.0       434
          Grid pruning is: on 
          Number of quadrature shells:   192
          Spatial weights used:  Erf1

          Convergence Information
          -----------------------
          Convergence aids based upon iterative change in 
          total energy or number of iterations. 
          Levelshifting, if invoked, occurs when the 
          HOMO/LUMO gap drops below (HL_TOL):  1.00D-02
          DIIS, if invoked, will attempt to extrapolate 
          using up to (NFOCK): 10 stored Fock matrices.

                    Damping(40%)  Levelshifting(0.0)       DIIS
                  --------------- ------------------- ---------------
          dE  on:    start            ASAP                start   
          dE off:  200 iters        200 iters           200 iters 


      Screening Tolerance Information
      -------------------------------
          Density screening/tol_rho:  1.00D-10
          AO Gaussian exp screening on grid/accAOfunc:  14
          CD Gaussian exp screening on grid/accCDfunc:  20
          XC Gaussian exp screening on grid/accXCfunc:  20
          Schwarz screening/accCoul:  1.00D-08



                            NWChem DFT Gradient Module
                            --------------------------



  charge          =   0.00
  wavefunction    = closed shell



                         DFT ENERGY GRADIENTS

    atom               coordinates                        gradient
                 x          y          z           x          y          z
   1 N      -0.064567  -0.102816   0.116117    0.000137   0.000250   0.000076
   2 O       1.147818   1.975343  -1.080429   -0.000028  -0.000052   0.000119
   3 O      -0.895193  -1.614174  -1.315346   -0.000084  -0.000158  -0.000147
   4 H       0.997385   1.640658  -2.913501   -0.000024  -0.000040  -0.000048

                 ----------------------------------------
                 |  Time  |  1-e(secs)   |  2-e(secs)   |
                 ----------------------------------------
                 |  CPU   |       0.00   |       2.06   |
                 ----------------------------------------
                 |  WALL  |       0.00   |       2.08   |
                 ----------------------------------------

  Step       Energy      Delta E   Gmax     Grms     Xrms     Xmax   Walltime
  ---- ---------------- -------- -------- -------- -------- -------- --------
@    8    -205.59944090 -1.7D-07  0.00025  0.00012  0.00039  0.00067     93.1
                                     ok       ok       ok       ok  


      ----------------------
      Optimization converged
      ----------------------


  Step       Energy      Delta E   Gmax     Grms     Xrms     Xmax   Walltime
  ---- ---------------- -------- -------- -------- -------- -------- --------
@    8    -205.59944090 -1.7D-07  0.00025  0.00012  0.00039  0.00067     93.1
                                     ok       ok       ok       ok  



                         Geometry "geometry" -> "geometry"
                         ---------------------------------

 Output coordinates in angstroms (scale by  1.889725989 to convert to a.u.)

  No.       Tag          Charge          X              Y              Z
 ---- ---------------- ---------- -------------- -------------- --------------
    1 N                    7.0000    -0.03416732    -0.05440795     0.06144669
    2 O                    8.0000     0.60739893     1.04530668    -0.57173846
    3 O                    8.0000    -0.47371597    -0.85418442    -0.69605099
    4 H                    1.0000     0.52779345     0.86819897    -1.54175845

      Atomic Mass 
      ----------- 

      N                 14.003070
      O                 15.994910
      H                  1.007825


 Effective nuclear repulsion energy (a.u.)      69.4485142235

            Nuclear Dipole moment (a.u.) 
            ----------------------------
        X                 Y               Z
 ---------------- ---------------- ----------------
     2.5664101545     3.8102949416   -21.2668766089

 ==============================================================================
                                internuclear distances
 ------------------------------------------------------------------------------
       center one      |      center two      | atomic units |  angstroms
 ------------------------------------------------------------------------------
    2 O                |   1 N                |     2.68707  |     1.42194
    3 O                |   1 N                |     2.24126  |     1.18602
    4 H                |   2 O                |     1.86944  |     0.98926
 ------------------------------------------------------------------------------
                         number of included internuclear distances:          3
 ==============================================================================



 ==============================================================================
                                 internuclear angles
 ------------------------------------------------------------------------------
        center 1       |       center 2       |       center 3       |  degrees
 ------------------------------------------------------------------------------
    2 O                |   1 N                |   3 O                |   113.85
    1 N                |   2 O                |   4 H                |   105.18
 ------------------------------------------------------------------------------
                            number of included internuclear angles:          2
 ==============================================================================




 Task  times  cpu:       89.9s     wall:       93.0s


                                NWChem Input Module
                                -------------------


 Summary of allocated global arrays
-----------------------------------
  No active global arrays


MA_summarize_allocated_blocks: starting scan ...
MA_summarize_allocated_blocks: scan completed: 0 heap blocks, 0 stack blocks
MA usage statistics:

	allocation statistics:
					      heap	     stack
					      ----	     -----
	current number of blocks	         0	         0
	maximum number of blocks	        24	        53
	current total bytes		         0	         0
	maximum total bytes		 268769864	  42594200
	maximum total K-bytes		    268770	     42595
	maximum total M-bytes		       269	        43


                                     CITATION
                                     --------
                Please cite the following reference when publishing
                           results obtained with NWChem:

          E. Apra, E. J. Bylaska, W. A. de Jong, N. Govind, K. Kowalski,
       T. P. Straatsma, M. Valiev, H. J. J. van Dam, Y. Alexeev, J. Anchell,
       V. Anisimov, F. W. Aquino, R. Atta-Fynn, J. Autschbach, N. P. Bauman,
     J. C. Becca, D. E. Bernholdt, K. Bhaskaran-Nair, S. Bogatko, P. Borowski,
         J. Boschen, J. Brabec, A. Bruner, E. Cauet, Y. Chen, G. N. Chuev,
      C. J. Cramer, J. Daily, M. J. O. Deegan, T. H. Dunning Jr., M. Dupuis,
   K. G. Dyall, G. I. Fann, S. A. Fischer, A. Fonari, H. Fruchtl, L. Gagliardi,
      J. Garza, N. Gawande, S. Ghosh, K. Glaesemann, A. W. Gotz, J. Hammond,
       V. Helms, E. D. Hermes, K. Hirao, S. Hirata, M. Jacquelin, L. Jensen,
   B. G. Johnson, H. Jonsson, R. A. Kendall, M. Klemm, R. Kobayashi, V. Konkov,
      S. Krishnamoorthy, M. Krishnan, Z. Lin, R. D. Lins, R. J. Littlefield,
      A. J. Logsdail, K. Lopata, W. Ma, A. V. Marenich, J. Martin del Campo,
   D. Mejia-Rodriguez, J. E. Moore, J. M. Mullin, T. Nakajima, D. R. Nascimento,
    J. A. Nichols, P. J. Nichols, J. Nieplocha, A. Otero-de-la-Roza, B. Palmer,
    A. Panyala, T. Pirojsirikul, B. Peng, R. Peverati, J. Pittner, L. Pollack,
   R. M. Richard, P. Sadayappan, G. C. Schatz, W. A. Shelton, D. W. Silverstein,
   D. M. A. Smith, T. A. Soares, D. Song, M. Swart, H. L. Taylor, G. S. Thomas,
            V. Tipparaju, D. G. Truhlar, K. Tsemekhman, T. Van Voorhis,
      A. Vazquez-Mayagoitia, P. Verma, O. Villa, A. Vishnu, K. D. Vogiatzis,
        D. Wang, J. H. Weare, M. J. Williamson, T. L. Windus, K. Wolinski,
        A. T. Wong, Q. Wu, C. Yang, Q. Yu, M. Zacharias, Z. Zhang, Y. Zhao,
                                and R. J. Harrison
                        "NWChem: Past, present, and future
                         J. Chem. Phys. 152, 184102 (2020)
                               doi:10.1063/5.0004997

                                      AUTHORS
                                      -------
  E. Apra, E. J. Bylaska, N. Govind, K. Kowalski, M. Valiev, D. Mejia-Rodriguez,
       A. Kunitsa, N. P. Bauman, A. Panyala, W. A. de Jong, T. P. Straatsma,
   H. J. J. van Dam, D. Wang, T. L. Windus, J. Hammond, J. Autschbach, A. Woods,
    K. Bhaskaran-Nair, J. Brabec, K. Lopata, S. A. Fischer, S. Krishnamoorthy,
     M. Jacquelin, W. Ma, M. Klemm, O. Villa, Y. Chen, V. Anisimov, F. Aquino,
     S. Hirata, M. T. Hackler, E. Hermes, L. Jensen, J. E. Moore, J. C. Becca,
      V. Konjkov, T. Risthaus, M. Malagoli, A. Marenich, A. Otero-de-la-Roza,
        J. Mullin, P. Nichols, R. Peverati, J. Pittner, Y. Zhao, P.-D. Fan,
        A. Fonari, M. J. Williamson, R. J. Harrison, J. R. Rehr, M. Dupuis,
     D. Silverstein, D. M. A. Smith, J. Nieplocha, V. Tipparaju, M. Krishnan,
     B. E. Van Kuiken, A. Vazquez-Mayagoitia, M. Swart, Q. Wu, T. Van Voorhis,
     A. A. Auer, M. Nooijen, L. D. Crosby, E. Brown, G. Cisneros, G. I. Fann,
   H. Fruchtl, J. Garza, K. Hirao, R. A. Kendall, J. A. Nichols, K. Tsemekhman,
    K. Wolinski, J. Anchell, D. E. Bernholdt, P. Borowski, T. Clark, D. Clerc,
   H. Dachsel, M. J. O. Deegan, K. Dyall, D. Elwood, E. Glendening, M. Gutowski,
   A. C. Hess, J. Jaffe, B. G. Johnson, J. Ju, R. Kobayashi, R. Kutteh, Z. Lin,
   R. Littlefield, X. Long, B. Meng, T. Nakajima, S. Niu, L. Pollack, M. Rosing,
   K. Glaesemann, G. Sandrone, M. Stave, H. Taylor, G. Thomas, J. H. van Lenthe,
                               A. T. Wong, Z. Zhang.

 Total times  cpu:       90.0s     wall:       93.1s
