 argument  1 = 0e/mol.nwi
                                         
                                         


             Northwest Computational Chemistry Package (NWChem) 7.2.2
             --------------------------------------------------------


                    Environmental Molecular Sciences Laboratory
                       Pacific Northwest National Laboratory
                                Richland, WA 99352

                              Copyright (c) 1994-2022
                       Pacific Northwest National Laboratory
                            Battelle Memorial Institute

             NWChem is an open-source computational chemistry package
                        distributed under the terms of the
                      Educational Community License (ECL) 2.0
             A copy of the license is included with this distribution
                              in the LICENSE.TXT file

                                  ACKNOWLEDGMENT
                                  --------------

            This software and its documentation were developed at the
            EMSL at Pacific Northwest National Laboratory, a multiprogram
            national laboratory, operated for the U.S. Department of Energy
            by Battelle under Contract Number DE-AC05-76RL01830. Support
            for this work was provided by the Department of Energy Office
            of Biological and Environmental Research, Office of Basic
            Energy Sciences, and the Office of Advanced Scientific Computing.


           Job information
           ---------------

    hostname        = r310.ib.bridges2.psc.edu
    program         = nwchem
    date            = Tue Oct  1 15:04:44 2024

    compiled        = Mon_Mar_18_17:03:37_2024
    source          = /ocean/projects/pscstaff/mmadrid/nwchem-7.2.2
    nwchem branch   = 7.2.2
    nwchem revision = 74936fb9
    ga revision     = 5.8.0
    use scalapack   = F
    input           = 0e/mol.nwi
    prefix          = dft.
    data base       = .//dft.db
    status          = startup
    nproc           =       15
    time left       =     -1s



           Memory information
           ------------------

    heap     =   67108864 doubles =    512.0 Mbytes
    stack    =   67108861 doubles =    512.0 Mbytes
    global   =  134217728 doubles =   1024.0 Mbytes (distinct from heap & stack)
    total    =  268435453 doubles =   2048.0 Mbytes
    verify   = yes
    hardfail = no 


           Directory information
           ---------------------

  0 permanent = ./
  0 scratch   = /jet/home/hmt47/nwchem_scratch/




                                NWChem Input Module
                                -------------------


  library name resolved from: environment
  library file name is: </opt/packages/nwchem/nwchem7.2.2/share/nwchem/libraries/>
  


 Summary of "ao basis" -> "" (cartesian)
 ------------------------------------------------------------------------------
       Tag                 Description            Shells   Functions and Types
 ---------------- ------------------------------  ------  ---------------------
 *                        aug-cc-pVTZ                 on all atoms 


  pbe96 is a nonlocal functional; adding pw91lda local functional. 

 Scaling coordinates for geometry "geometry" by  1.889725989
 (inverse scale =  0.529177249)



                             Geometry "geometry" -> ""
                             -------------------------

 Output coordinates in angstroms (scale by  1.889725989 to convert to a.u.)

  No.       Tag          Charge          X              Y              Z
 ---- ---------------- ---------- -------------- -------------- --------------
    1 C                    6.0000    -0.00599936     0.07272859     0.07406657
    2 C                    6.0000    -0.02293461    -0.08238570     1.62663677
    3 O                    8.0000     0.60503861     1.12204283    -0.31583017
    4 O                    8.0000    -0.57269740    -0.81633184    -0.60510234
    5 O                    8.0000     0.66483773     1.01221967     2.23025371
    6 H                    1.0000    -1.07464496    -0.12763445     1.96821245
    7 H                    1.0000     0.45278542    -1.04554448     1.89224959
    8 H                    1.0000     0.91350657     1.49596639     1.38655442

      Atomic Mass 
      ----------- 

      C                 12.000000
      O                 15.994910
      H                  1.007825


 Effective nuclear repulsion energy (a.u.)     169.6278306998

            Nuclear Dipole moment (a.u.) 
            ----------------------------
        X                 Y               Z
 ---------------- ---------------- ----------------
    10.7628866146    20.4247066563    48.9926695621


            XYZ format geometry
            -------------------
     8
 geometry
 C                    -0.00599936     0.07272859     0.07406657
 C                    -0.02293461    -0.08238570     1.62663677
 O                     0.60503861     1.12204283    -0.31583017
 O                    -0.57269740    -0.81633184    -0.60510234
 O                     0.66483773     1.01221967     2.23025371
 H                    -1.07464496    -0.12763445     1.96821245
 H                     0.45278542    -1.04554448     1.89224959
 H                     0.91350657     1.49596639     1.38655442

 ==============================================================================
                                internuclear distances
 ------------------------------------------------------------------------------
       center one      |      center two      | atomic units |  angstroms
 ------------------------------------------------------------------------------
    2 C                |   1 C                |     2.94871  |     1.56039
    3 O                |   1 C                |     2.41001  |     1.27532
    4 O                |   1 C                |     2.36996  |     1.25413
    5 O                |   2 C                |     2.69612  |     1.42673
    6 H                |   2 C                |     2.09139  |     1.10671
    7 H                |   2 C                |     2.09115  |     1.10659
    8 H                |   5 O                |     1.89696  |     1.00383
 ------------------------------------------------------------------------------
                         number of included internuclear distances:          7
 ==============================================================================



 ==============================================================================
                                 internuclear angles
 ------------------------------------------------------------------------------
        center 1       |       center 2       |       center 3       |  degrees
 ------------------------------------------------------------------------------
    2 C                |   1 C                |   3 O                |   113.03
    2 C                |   1 C                |   4 O                |   117.61
    3 O                |   1 C                |   4 O                |   129.36
    1 C                |   2 C                |   5 O                |   109.84
    1 C                |   2 C                |   6 H                |   108.75
    1 C                |   2 C                |   7 H                |   108.70
    5 O                |   2 C                |   6 H                |   111.03
    5 O                |   2 C                |   7 H                |   111.04
    6 H                |   2 C                |   7 H                |   107.39
    2 C                |   5 O                |   8 H                |    97.67
 ------------------------------------------------------------------------------
                            number of included internuclear angles:         10
 ==============================================================================




                                 NWChem DFT Module
                                 -----------------


                      Basis "ao basis" -> "ao basis" (cartesian)
                      -----
  C (Carbon)
  ----------
            Exponent  Coefficients 
       -------------- ---------------------------------------------------------
  1 S  8.23600000E+03  0.000531
  1 S  1.23500000E+03  0.004108
  1 S  2.80800000E+02  0.021087
  1 S  7.92700000E+01  0.081853
  1 S  2.55900000E+01  0.234817
  1 S  8.99700000E+00  0.434401
  1 S  3.31900000E+00  0.346129
  1 S  3.64300000E-01 -0.008983

  2 S  8.23600000E+03 -0.000113
  2 S  1.23500000E+03 -0.000878
  2 S  2.80800000E+02 -0.004540
  2 S  7.92700000E+01 -0.018133
  2 S  2.55900000E+01 -0.055760
  2 S  8.99700000E+00 -0.126895
  2 S  3.31900000E+00 -0.170352
  2 S  3.64300000E-01  0.598684

  3 S  9.05900000E-01  1.000000

  4 S  1.28500000E-01  1.000000

  5 S  4.40200000E-02  1.000000

  6 P  1.87100000E+01  0.014031
  6 P  4.13300000E+00  0.086866
  6 P  1.20000000E+00  0.290216

  7 P  3.82700000E-01  1.000000

  8 P  1.20900000E-01  1.000000

  9 P  3.56900000E-02  1.000000

 10 D  1.09700000E+00  1.000000

 11 D  3.18000000E-01  1.000000

 12 D  1.00000000E-01  1.000000

 13 F  7.61000000E-01  1.000000

 14 F  2.68000000E-01  1.000000

  O (Oxygen)
  ----------
            Exponent  Coefficients 
       -------------- ---------------------------------------------------------
  1 S  1.53300000E+04  0.000508
  1 S  2.29900000E+03  0.003929
  1 S  5.22400000E+02  0.020243
  1 S  1.47300000E+02  0.079181
  1 S  4.75500000E+01  0.230687
  1 S  1.67600000E+01  0.433118
  1 S  6.20700000E+00  0.350260
  1 S  6.88200000E-01 -0.008154

  2 S  1.53300000E+04 -0.000115
  2 S  2.29900000E+03 -0.000895
  2 S  5.22400000E+02 -0.004636
  2 S  1.47300000E+02 -0.018724
  2 S  4.75500000E+01 -0.058463
  2 S  1.67600000E+01 -0.136463
  2 S  6.20700000E+00 -0.175740
  2 S  6.88200000E-01  0.603418

  3 S  1.75200000E+00  1.000000

  4 S  2.38400000E-01  1.000000

  5 S  7.37600000E-02  1.000000

  6 P  3.44600000E+01  0.015928
  6 P  7.74900000E+00  0.099740
  6 P  2.28000000E+00  0.310492

  7 P  7.15600000E-01  1.000000

  8 P  2.14000000E-01  1.000000

  9 P  5.97400000E-02  1.000000

 10 D  2.31400000E+00  1.000000

 11 D  6.45000000E-01  1.000000

 12 D  2.14000000E-01  1.000000

 13 F  1.42800000E+00  1.000000

 14 F  5.00000000E-01  1.000000

  H (Hydrogen)
  ------------
            Exponent  Coefficients 
       -------------- ---------------------------------------------------------
  1 S  3.38700000E+01  0.006068
  1 S  5.09500000E+00  0.045308
  1 S  1.15900000E+00  0.202822

  2 S  3.25800000E-01  1.000000

  3 S  1.02700000E-01  1.000000

  4 S  2.52600000E-02  1.000000

  5 P  1.40700000E+00  1.000000

  6 P  3.88000000E-01  1.000000

  7 P  1.02000000E-01  1.000000

  8 D  1.05700000E+00  1.000000

  9 D  2.47000000E-01  1.000000



 Summary of "ao basis" -> "ao basis" (cartesian)
 ------------------------------------------------------------------------------
       Tag                 Description            Shells   Functions and Types
 ---------------- ------------------------------  ------  ---------------------
 C                        aug-cc-pVTZ               14       55   5s4p3d2f
 O                        aug-cc-pVTZ               14       55   5s4p3d2f
 H                        aug-cc-pVTZ                9       25   4s3p2d




 Summary of "ao basis" -> "ao basis" (cartesian)
 ------------------------------------------------------------------------------
       Tag                 Description            Shells   Functions and Types
 ---------------- ------------------------------  ------  ---------------------
 C                        aug-cc-pVTZ               14       55   5s4p3d2f
 O                        aug-cc-pVTZ               14       55   5s4p3d2f
 H                        aug-cc-pVTZ                9       25   4s3p2d


  Caching 1-el integrals 

            General Information
            -------------------
          SCF calculation type: DFT
          Wavefunction type:  spin polarized.
          No. of atoms     :     8
          No. of electrons :    39
           Alpha electrons :    20
            Beta electrons :    19
          Charge           :     0
          Spin multiplicity:     2
          Use of symmetry is: off; symmetry adaption is: off
          Maximum number of iterations: 200
          AO basis - number of functions:   350
                     number of shells:    97
          Convergence on energy requested:  1.00D-06
          Convergence on density requested:  1.00D-05
          Convergence on gradient requested:  5.00D-04

              XC Information
              --------------
          PerdewBurkeErnzerhof Exchange Functional  1.000          
            Perdew 1991 LDA Correlation Functional  1.000 local    
           PerdewBurkeErnz. Correlation Functional  1.000 non-local

             Grid Information
             ----------------
          Grid used for XC integration:  medium    
          Radial quadrature: Mura-Knowles        
          Angular quadrature: Lebedev. 
          Tag              B.-S. Rad. Rad. Pts. Rad. Cut. Ang. Pts.
          ---              ---------- --------- --------- ---------
          C                   0.70       49          13.0       434
          O                   0.60       49          14.0       434
          H                   0.35       45          14.0       434
          Grid pruning is: on 
          Number of quadrature shells:   380
          Spatial weights used:  Erf1

          Convergence Information
          -----------------------
          Convergence aids based upon iterative change in 
          total energy or number of iterations. 
          Levelshifting, if invoked, occurs when the 
          HOMO/LUMO gap drops below (HL_TOL):  1.00D-02
          DIIS, if invoked, will attempt to extrapolate 
          using up to (NFOCK): 10 stored Fock matrices.

                    Damping(40%)  Levelshifting(0.0)       DIIS
                  --------------- ------------------- ---------------
          dE  on:    start            0.00D+00            start   
          dE off:  200 iters          0.00D+00          200 iters 


      Screening Tolerance Information
      -------------------------------
          Density screening/tol_rho:  1.00D-10
          AO Gaussian exp screening on grid/accAOfunc:  14
          CD Gaussian exp screening on grid/accCDfunc:  20
          XC Gaussian exp screening on grid/accXCfunc:  20
          Schwarz screening/accCoul:  1.00D-08


 Forcing the number of linearly dependent vectors to be  0

      Superposition of Atomic Density Guess
      -------------------------------------

 Sum of atomic energies:        -301.18457372
   Time after variat. SCF:      0.5
   Time prior to 1st pass:      0.5

 Grid_pts file          = /jet/home/hmt47/nwchem_scratch//dft.gridpts.00
 Record size in doubles =  12289        No. of grid_pts per rec  =   3070
 Max. records in memory =      5        Max. recs in file   =  67550051


           Memory utilization after 1st SCF pass: 
           Heap Space remaining (MW):       33.49            33485832
          Stack Space remaining (MW):       67.11            67105860

   convergence    iter        energy       DeltaE   RMS-Dens  Diis-err    time
 ---------------- ----- ----------------- --------- --------- ---------  ------
 d=40,ls=0.0,diis     1   -304.1106205016 -4.74D+02  3.83D-03  1.23D+01     1.5
                                                     3.77D-03  1.12D+01
 d=40,ls=0.0,diis     2   -303.6701093678  4.41D-01  3.09D-03  2.01D+00     7.3
                                                     3.01D-03  1.81D+00
 d=40,ls=0.0,diis     3   -303.0493293474  6.21D-01  1.33D-03  1.17D+00    13.3
                                                     1.88D-03  9.69D-01
 d=40,ls=0.0,diis     4   -303.3543490626 -3.05D-01  5.96D-04  1.95D-01    19.2
                                                     1.67D-03  1.75D-01
 d=40,ls=0.0,diis     5   -303.3264191853  2.79D-02  2.96D-04  1.72D-01    25.3
                                                     1.50D-03  1.28D-01
  Resetting Diis
 d=40,ls=0.0,diis     6   -303.3502624635 -2.38D-02  2.10D-04  1.40D-01    31.3
                                                     1.30D-03  1.09D-01
 d=40,ls=0.0,diis     7   -303.3263474892  2.39D-02  2.38D-03  1.59D-01    36.8
                                                     2.15D-03  1.21D-01
 d=40,ls=0.0,diis     8   -303.0326799850  2.94D-01  1.15D-03  7.57D-01    42.9
                                                     1.72D-03  5.88D-01
 d=40,ls=0.0,diis     9   -303.2708039237 -2.38D-01  5.19D-04  2.49D-01    48.9
                                                     1.44D-03  2.00D-01
 d=40,ls=0.0,diis    10   -303.3255110555 -5.47D-02  3.44D-04  1.73D-01    54.8
                                                     6.19D-04  1.39D-01
 d=40,ls=0.0,diis    11   -303.3531002703 -2.76D-02  1.81D-04  1.35D-01    60.9
                                                     2.66D-04  1.08D-01
 d=40,ls=0.0,diis    12   -303.3684733934 -1.54D-02  1.39D-04  1.12D-01    66.8
                                                     1.44D-04  9.16D-02
 d=40,ls=0.0,diis    13   -303.3814522291 -1.30D-02  2.65D-04  8.67D-02    72.8
                                                     3.36D-04  7.18D-02
 d=40,ls=0.0,diis    14   -303.4033480207 -2.19D-02  2.23D-04  3.85D-02    78.8
                                                     1.84D-03  3.28D-02
 d=40,ls=0.0,diis    15   -303.3719771211  3.14D-02  5.21D-05  7.97D-02    84.9
                                                     7.37D-04  5.75D-02
 d=40,ls=0.0,diis    16   -303.3079354542  6.40D-02  1.03D-04  1.90D-01    90.8
                                                     1.59D-03  1.45D-01
 d=40,ls=0.0,diis    17   -303.4149986174 -1.07D-01  4.38D-05  1.01D-02    96.8
                                                     7.84D-04  7.40D-03
 d=40,ls=0.0,diis    18   -303.4215481686 -6.55D-03  3.88D-05  1.38D-03   102.9
                                                     2.72D-04  1.03D-03
 d=40,ls=0.0,diis    19   -303.4198492748  1.70D-03  2.95D-05  4.73D-03   108.8
                                                     6.44D-04  4.01D-03
 d=40,ls=0.0,diis    20   -303.4170260102  2.82D-03  1.16D-05  1.03D-02   114.9
                                                     2.26D-04  8.40D-03
 d=40,ls=0.0,diis    21   -303.4146509023  2.38D-03  1.18D-05  1.54D-02   120.9
                                                     4.93D-04  1.28D-02
 d=40,ls=0.0,diis    22   -303.4180022022 -3.35D-03  2.24D-05  7.82D-03   126.9
                                                     3.36D-04  6.57D-03
 d=40,ls=0.0,diis    23   -303.4176344574  3.68D-04  2.62D-05  8.64D-03   132.8
                                                     2.17D-04  7.56D-03
 d=40,ls=0.0,diis    24   -303.4163858146  1.25D-03  1.47D-05  1.15D-02   138.5
                                                     1.03D-04  1.01D-02
 d=40,ls=0.0,diis    25   -303.4156040832  7.82D-04  1.64D-05  1.32D-02   144.6
                                                     4.40D-05  1.16D-02
 d=40,ls=0.0,diis    26   -303.4147075872  8.96D-04  4.75D-05  1.52D-02   150.5
                                                     5.16D-05  1.34D-02
 d=40,ls=0.0,diis    27   -303.4132367929  1.47D-03  9.96D-05  1.84D-02   156.4
                                                     1.00D-04  1.62D-02
 d=40,ls=0.0,diis    28   -303.4091975973  4.04D-03  5.54D-05  2.71D-02   162.4
                                                     3.29D-04  2.34D-02
 d=40,ls=0.0,diis    29   -303.4129768216 -3.78D-03  7.59D-05  1.85D-02   168.4
                                                     5.81D-04  1.60D-02
 d=40,ls=0.0,diis    30   -303.4129413122  3.55D-05  2.19D-04  1.86D-02   174.3
                                                     1.85D-03  1.60D-02
 d=40,ls=0.0,diis    31   -303.3665855140  4.64D-02  5.11D-05  9.34D-02   180.3
                                                     7.39D-04  6.71D-02
 d=40,ls=0.0,diis    32   -303.2943838890  7.22D-02  9.75D-05  2.18D-01   186.3
                                                     1.63D-03  1.65D-01
 d=40,ls=0.0,diis    33   -303.4116633760 -1.17D-01  4.21D-05  1.72D-02   192.3
                                                     6.59D-04  1.28D-02
 d=40,ls=0.0,diis    34   -303.4222074065 -1.05D-02  2.06D-05  5.91D-05   197.9
                                                     3.01D-04  4.00D-05
 d=40,ls=0.0,diis    35   -303.4209087575  1.30D-03  9.26D-06  2.58D-03   203.7
                                                     1.08D-04  2.21D-03
 d=40,ls=0.0,diis    36   -303.4196293161  1.28D-03  1.18D-05  4.84D-03   209.6
                                                     5.79D-05  4.24D-03
 d=40,ls=0.0,diis    37   -303.4192644897  3.65D-04  9.16D-06  5.41D-03   215.5
                                                     4.60D-05  4.79D-03
 d=40,ls=0.0,diis    38   -303.4190147082  2.50D-04  7.71D-06  5.85D-03   221.4
                                                     8.03D-05  5.20D-03
 d=40,ls=0.0,diis    39   -303.4186442569  3.70D-04  7.63D-06  6.60D-03   227.1
                                                     4.91D-05  5.89D-03
 d=40,ls=0.0,diis    40   -303.4183867244  2.58D-04  3.77D-06  7.15D-03   232.8
                                                     3.30D-05  6.40D-03
 d=40,ls=0.0,diis    41   -303.4183286367  5.81D-05  9.73D-06  7.29D-03   238.6
                                                     2.41D-05  6.53D-03
 d=40,ls=0.0,diis    42   -303.4180749629  2.54D-04  1.75D-05  7.81D-03   244.4
                                                     1.94D-05  6.99D-03
 d=40,ls=0.0,diis    43   -303.4175225789  5.52D-04  1.72D-05  8.98D-03   250.1
                                                     2.83D-05  8.00D-03
 d=40,ls=0.0,diis    44   -303.4181237604 -6.01D-04  2.86D-05  7.70D-03   255.9
                                                     1.88D-03  6.88D-03
 d=40,ls=0.0,diis    45   -303.3777162125  4.04D-02  5.46D-05  7.30D-02   261.7
                                                     8.38D-04  5.49D-02
 d=40,ls=0.0,diis    46   -303.3057621411  7.20D-02  3.53D-05  1.96D-01   267.7
                                                     3.34D-04  1.50D-01
 d=40,ls=0.0,diis    47   -303.2654444331  4.03D-02  2.23D-05  2.66D-01   273.5
                                                     1.34D-04  2.10D-01
 d=40,ls=0.0,diis    48   -303.2469030677  1.85D-02  1.58D-05  2.99D-01   279.3
                                                     5.49D-05  2.40D-01
 d=40,ls=0.0,diis    49   -303.2378857277  9.02D-03  2.24D-05  3.15D-01   285.3
                                                     3.50D-05  2.54D-01
 d=40,ls=0.0,diis    50   -303.2312479195  6.64D-03  4.15D-06  3.29D-01   291.2
                                                     1.00D-05  2.65D-01
 d=40,ls=0.0,diis    51   -303.2294664396  1.78D-03  1.23D-06  3.32D-01   297.3
                                                     3.52D-06  2.68D-01
 d=40,ls=0.0,diis    52   -303.2291882842  2.78D-04  2.91D-05  3.32D-01   314.6
                                                     3.35D-05  2.68D-01
 d=40,ls=0.0,diis    53   -303.2344432560 -5.25D-03  7.65D-05  3.21D-01   320.4
                                                     2.05D-03  2.60D-01
 d=40,ls=0.0,diis    54   -303.3542306502 -1.20D-01  8.50D-05  1.37D-01   326.4
                                                     1.34D-03  1.09D-01
 d=40,ls=0.0,diis    55   -303.4157940765 -6.16D-02  7.24D-05  1.31D-02   332.4
                                                     7.31D-04  1.05D-02
 d=40,ls=0.0,diis    56   -303.4207696414 -4.98D-03  3.71D-05  2.68D-03   338.5
                                                     2.45D-04  2.24D-03
 d=40,ls=0.0,diis    57   -303.4188840042  1.89D-03  3.28D-05  6.83D-03   344.3
                                                     2.40D-04  5.93D-03
 d=40,ls=0.0,diis    58   -303.4198524143 -9.68D-04  1.98D-05  4.95D-03   350.2
                                                     2.04D-04  4.38D-03
 d=40,ls=0.0,diis    59   -303.4208264647 -9.74D-04  2.01D-05  3.32D-03   356.2
                                                     1.36D-04  2.94D-03
 d=40,ls=0.0,diis    60   -303.4214467260 -6.20D-04  2.74D-05  2.17D-03   362.2
                                                     5.05D-04  1.94D-03
 d=40,ls=0.0,diis    61   -303.4218658677 -4.19D-04  1.41D-05  1.40D-03   367.9
                                                     2.08D-04  1.20D-03
 d=40,ls=0.0,diis    62   -303.4222484017 -3.83D-04  1.22D-05  8.68D-04   373.6
                                                     1.64D-04  6.86D-04
 d=40,ls=0.0,diis    63   -303.4217454312  5.03D-04  1.35D-05  1.81D-03   379.7
                                                     5.42D-05  1.63D-03
 d=40,ls=0.0,diis    64   -303.4218384992 -9.31D-05  1.95D-05  1.59D-03   385.7
                                                     7.55D-05  1.47D-03
 d=40,ls=0.0,diis    65   -303.4216195109  2.19D-04  1.41D-05  1.92D-03   391.6
                                                     8.60D-05  1.81D-03
 d=40,ls=0.0,diis    66   -303.4219114685 -2.92D-04  8.47D-06  1.33D-03   397.5
                                                     1.02D-04  1.27D-03
 d=40,ls=0.0,diis    67   -303.4223264703 -4.15D-04  5.24D-06  5.70D-04   403.4
                                                     2.88D-05  5.52D-04
 d=40,ls=0.0,diis    68   -303.4224106223 -8.42D-05  3.40D-06  4.25D-04   409.3
                                                     3.80D-05  4.13D-04
 d=40,ls=0.0,diis    69   -303.4225191900 -1.09D-04  2.83D-06  2.36D-04   415.2
                                                     4.26D-05  2.31D-04
 d=40,ls=0.0,diis    70   -303.4226039414 -8.48D-05  1.82D-06  8.93D-05   421.2
                                                     3.69D-05  8.81D-05
 d=40,ls=0.0,diis    71   -303.4226455040 -4.16D-05  1.37D-06  1.66D-05   427.3
                                                     1.67D-05  1.65D-05
 d=40,ls=0.0,diis    72   -303.4226537239 -8.22D-06  3.55D-07  2.75D-06   433.2
                                                     6.34D-06  2.73D-06
 d=40,ls=0.0,diis    73   -303.4226551491 -1.43D-06  2.09D-07  5.46D-07   439.1
                                                     2.72D-06  5.39D-07
 d=40,ls=0.0,diis    74   -303.4226554676 -3.19D-07  1.47D-07  1.12D-07   445.0
                                                     1.20D-06  1.11D-07


         Total DFT energy =     -303.422655467642
      One electron energy =     -750.854289899100
           Coulomb energy =      315.066930022108
    Exchange-Corr. energy =      -37.263126290413
 Nuclear repulsion energy =      169.627830699762

 Numeric. integr. density =       38.999997275619

     Total iterative time =    444.5s



                    DFT Final Alpha Molecular Orbital Analysis
                    ------------------------------------------

 Vector    1  Occ=1.000000D+00  E=-1.885404D+01
              MO Center= -5.7D-01, -8.2D-01, -6.1D-01, r^2= 1.5D-02
   Bfn.  Coefficient  Atom+Function         Bfn.  Coefficient  Atom+Function  
  ----- ------------  ---------------      ----- ------------  ---------------
   166      0.983507  4 O  s                168      0.069628  4 O  s          
    59     -0.064059  2 C  s                 50      0.053357  1 C  fxyz       
    34     -0.046017  1 C  dyz               53      0.045371  1 C  fyyz       
    14      0.044941  1 C  pz               114      0.044631  3 O  s          
   328      0.041823  8 H  s                  4     -0.034517  1 C  s          

 Vector    2  Occ=1.000000D+00  E=-1.881559D+01
              MO Center=  6.6D-01,  1.0D+00,  2.2D+00, r^2= 1.5D-02
   Bfn.  Coefficient  Atom+Function         Bfn.  Coefficient  Atom+Function  
  ----- ------------  ---------------      ----- ------------  ---------------
   221      0.983420  5 O  s                 68     -0.077018  2 C  py         
   223      0.066294  5 O  s                 59      0.060339  2 C  s          
   224     -0.058486  5 O  s                 86     -0.052274  2 C  dxy        
    67     -0.047874  2 C  px                14     -0.041499  1 C  pz         
    13      0.037009  1 C  py               255      0.036072  5 O  dzz        

 Vector    3  Occ=1.000000D+00  E=-1.878819D+01
              MO Center=  6.0D-01,  1.1D+00, -3.2D-01, r^2= 1.5D-02
   Bfn.  Coefficient  Atom+Function         Bfn.  Coefficient  Atom+Function  
  ----- ------------  ---------------      ----- ------------  ---------------
   111      0.981993  3 O  s                 59      0.076900  2 C  s          
   113      0.067149  3 O  s                278     -0.058113  6 H  s          
   303     -0.058142  7 H  s                114     -0.049027  3 O  s          
    13     -0.043274  1 C  py               169      0.042187  4 O  s          
    54      0.037450  1 C  fyzz               4     -0.036451  1 C  s          

 Vector    4  Occ=1.000000D+00  E=-1.004903D+01
              MO Center= -6.0D-03,  7.3D-02,  7.4D-02, r^2= 2.8D-02
   Bfn.  Coefficient  Atom+Function         Bfn.  Coefficient  Atom+Function  
  ----- ------------  ---------------      ----- ------------  ---------------
     1      1.012857  1 C  s                  2      0.085841  1 C  s          
   169     -0.077475  4 O  s                  3      0.068860  1 C  s          
     4     -0.066585  1 C  s                 69     -0.039420  2 C  pz         
   114     -0.037974  3 O  s                 53     -0.036448  1 C  fyyz       
    25      0.034316  1 C  dxy               27      0.033635  1 C  dyy        

 Vector    5  Occ=1.000000D+00  E=-9.987955D+00
              MO Center= -2.3D-02, -8.2D-02,  1.6D+00, r^2= 2.8D-02
   Bfn.  Coefficient  Atom+Function         Bfn.  Coefficient  Atom+Function  
  ----- ------------  ---------------      ----- ------------  ---------------
    56      1.014007  2 C  s                 59     -0.106290  2 C  s          
    57      0.088317  2 C  s                 58      0.065167  2 C  s          
    68      0.039891  2 C  py                86      0.030790  2 C  dxy        
     4      0.025444  1 C  s          

 Vector    6  Occ=1.000000D+00  E=-1.049973D+00
              MO Center= -2.1D-01, -2.3D-01, -2.7D-01, r^2= 1.1D+00
   Bfn.  Coefficient  Atom+Function         Bfn.  Coefficient  Atom+Function  
  ----- ------------  ---------------      ----- ------------  ---------------
   167      0.377257  4 O  s                  2      0.250002  1 C  s          
   169      0.219085  4 O  s                112      0.176772  3 O  s          
   168      0.105829  4 O  s                 59      0.099634  2 C  s          
   170      0.092738  4 O  s                222      0.074068  5 O  s          
     3      0.072633  1 C  s                115      0.066762  3 O  s          

 Vector    7  Occ=1.000000D+00  E=-9.922321D-01
              MO Center=  4.4D-01,  6.9D-01,  1.5D+00, r^2= 1.8D+00
   Bfn.  Coefficient  Atom+Function         Bfn.  Coefficient  Atom+Function  
  ----- ------------  ---------------      ----- ------------  ---------------
   222      0.398426  5 O  s                224      0.251283  5 O  s          
   167     -0.176221  4 O  s                169     -0.161977  4 O  s          
   114      0.140718  3 O  s                 57      0.133353  2 C  s          
   112      0.120761  3 O  s                223      0.110268  5 O  s          
   326      0.076431  8 H  s                327      0.065291  8 H  s          

 Vector    8  Occ=1.000000D+00  E=-9.474338D-01
              MO Center=  3.5D-01,  6.7D-01,  1.6D-01, r^2= 1.7D+00
   Bfn.  Coefficient  Atom+Function         Bfn.  Coefficient  Atom+Function  
  ----- ------------  ---------------      ----- ------------  ---------------
   112      0.386687  3 O  s                114      0.305848  3 O  s          
   222     -0.202163  5 O  s                167     -0.192635  4 O  s          
   169     -0.190697  4 O  s                224     -0.132766  5 O  s          
     7      0.116919  1 C  py               113      0.107715  3 O  s          
     2      0.089106  1 C  s                  6      0.069626  1 C  px         

 Vector    9  Occ=1.000000D+00  E=-6.825285D-01
              MO Center=  1.3D-02,  2.0D-03,  1.3D+00, r^2= 1.7D+00
   Bfn.  Coefficient  Atom+Function         Bfn.  Coefficient  Atom+Function  
  ----- ------------  ---------------      ----- ------------  ---------------
    57      0.353986  2 C  s                 59      0.167185  2 C  s          
   222     -0.160424  5 O  s                  2      0.132986  1 C  s          
     8      0.111705  1 C  pz               224     -0.111870  5 O  s          
   277      0.112187  6 H  s                302      0.111427  7 H  s          
   167     -0.101890  4 O  s                 11      0.099762  1 C  pz         

 Vector   10  Occ=1.000000D+00  E=-5.428991D-01
              MO Center=  1.6D-01,  2.7D-01,  1.1D+00, r^2= 2.7D+00
   Bfn.  Coefficient  Atom+Function         Bfn.  Coefficient  Atom+Function  
  ----- ------------  ---------------      ----- ------------  ---------------
     2      0.202219  1 C  s                 63     -0.164393  2 C  pz         
   227      0.138277  5 O  py               230      0.130207  5 O  py         
   112     -0.126326  3 O  s                 66     -0.123391  2 C  pz         
   167     -0.121602  4 O  s                328      0.121049  8 H  s          
   169     -0.105888  4 O  s                 57     -0.101358  2 C  s          

 Vector   11  Occ=1.000000D+00  E=-5.026296D-01
              MO Center= -8.8D-02, -6.3D-02, -5.6D-02, r^2= 2.7D+00
   Bfn.  Coefficient  Atom+Function         Bfn.  Coefficient  Atom+Function  
  ----- ------------  ---------------      ----- ------------  ---------------
   172      0.198035  4 O  py               175      0.192455  4 O  py         
     2      0.186693  1 C  s                167     -0.184074  4 O  s          
   169     -0.160857  4 O  s                  8     -0.137457  1 C  pz         
   114     -0.136197  3 O  s                112     -0.118496  3 O  s          
     4      0.114141  1 C  s                117     -0.112527  3 O  py         

 Vector   12  Occ=1.000000D+00  E=-4.697540D-01
              MO Center= -5.6D-02, -3.6D-02,  9.7D-01, r^2= 2.3D+00
   Bfn.  Coefficient  Atom+Function         Bfn.  Coefficient  Atom+Function  
  ----- ------------  ---------------      ----- ------------  ---------------
    61      0.178151  2 C  px                64      0.142910  2 C  px         
     6      0.138204  1 C  px               277     -0.133131  6 H  s          
   302      0.125811  7 H  s                  9      0.117120  1 C  px         
   171      0.116757  4 O  px               174      0.115442  4 O  px         
   276     -0.098151  6 H  s                 62     -0.089949  2 C  py         

 Vector   13  Occ=1.000000D+00  E=-4.599283D-01
              MO Center=  1.8D-01,  3.5D-01,  4.5D-01, r^2= 3.1D+00
   Bfn.  Coefficient  Atom+Function         Bfn.  Coefficient  Atom+Function  
  ----- ------------  ---------------      ----- ------------  ---------------
   112      0.158479  3 O  s                173      0.141298  4 O  pz         
     7     -0.139637  1 C  py               176      0.139366  4 O  pz         
    62     -0.130151  2 C  py               117      0.129715  3 O  py         
   179      0.125943  4 O  pz               120      0.122311  3 O  py         
   123      0.117121  3 O  py               227      0.110360  5 O  py         

 Vector   14  Occ=1.000000D+00  E=-4.250267D-01
              MO Center=  1.8D-01,  2.7D-01,  9.1D-01, r^2= 3.2D+00
   Bfn.  Coefficient  Atom+Function         Bfn.  Coefficient  Atom+Function  
  ----- ------------  ---------------      ----- ------------  ---------------
   176      0.175032  4 O  pz               173      0.170767  4 O  pz         
   227     -0.166465  5 O  py               230     -0.165860  5 O  py         
    62      0.153628  2 C  py                65      0.143672  2 C  py         
   117      0.130333  3 O  py               120      0.125698  3 O  py         
   114      0.113416  3 O  s                226     -0.110229  5 O  px         

 Vector   15  Occ=1.000000D+00  E=-4.062309D-01
              MO Center= -1.4D-02, -2.2D-02,  6.3D-01, r^2= 3.0D+00
   Bfn.  Coefficient  Atom+Function         Bfn.  Coefficient  Atom+Function  
  ----- ------------  ---------------      ----- ------------  ---------------
   175      0.176698  4 O  py               172      0.174422  4 O  py         
   171     -0.138775  4 O  px               174     -0.138396  4 O  px         
     6     -0.137153  1 C  px                61      0.129617  2 C  px         
    64      0.115728  2 C  px                 9     -0.110411  1 C  px         
   228     -0.105607  5 O  pz               231     -0.102912  5 O  pz         

 Vector   16  Occ=1.000000D+00  E=-3.965967D-01
              MO Center=  1.6D-01,  3.3D-01,  1.1D+00, r^2= 3.5D+00
   Bfn.  Coefficient  Atom+Function         Bfn.  Coefficient  Atom+Function  
  ----- ------------  ---------------      ----- ------------  ---------------
   228      0.228412  5 O  pz               231      0.221074  5 O  pz         
   224      0.193137  5 O  s                174     -0.155917  4 O  px         
   171     -0.154566  4 O  px               222      0.140061  5 O  s          
   225      0.135336  5 O  s                234      0.132172  5 O  pz         
   328     -0.132086  8 H  s                176      0.122675  4 O  pz         

 Vector   17  Occ=1.000000D+00  E=-3.196340D-01
              MO Center=  2.0D-02,  7.2D-02,  3.5D-01, r^2= 3.1D+00
   Bfn.  Coefficient  Atom+Function         Bfn.  Coefficient  Atom+Function  
  ----- ------------  ---------------      ----- ------------  ---------------
   176      0.238467  4 O  pz               173      0.231941  4 O  pz         
   228     -0.173114  5 O  pz                59      0.169411  2 C  s          
   231     -0.170223  5 O  pz               175     -0.157224  4 O  py         
   119     -0.153369  3 O  px               179      0.152088  4 O  pz         
   116     -0.151148  3 O  px               172     -0.149872  4 O  py         

 Vector   18  Occ=1.000000D+00  E=-3.086763D-01
              MO Center=  1.4D-01,  4.0D-01, -2.1D-01, r^2= 2.2D+00
   Bfn.  Coefficient  Atom+Function         Bfn.  Coefficient  Atom+Function  
  ----- ------------  ---------------      ----- ------------  ---------------
   116      0.225968  3 O  px               119      0.226861  3 O  px         
   174     -0.212299  4 O  px               171     -0.207562  4 O  px         
   120     -0.184137  3 O  py               117     -0.182606  3 O  py         
   122      0.141963  3 O  px               177     -0.133284  4 O  px         
   123     -0.103434  3 O  py               303     -0.092145  7 H  s          

 Vector   19  Occ=1.000000D+00  E=-2.834792D-01
              MO Center=  4.4D-01,  6.1D-01,  1.9D+00, r^2= 1.9D+00
   Bfn.  Coefficient  Atom+Function         Bfn.  Coefficient  Atom+Function  
  ----- ------------  ---------------      ----- ------------  ---------------
   229      0.301229  5 O  px               226      0.297695  5 O  px         
   232      0.191596  5 O  px               230     -0.175008  5 O  py         
   227     -0.172234  5 O  py               233     -0.116375  5 O  py         
   277      0.099979  6 H  s                 64     -0.098499  2 C  px         
   302     -0.097717  7 H  s                 61     -0.090974  2 C  px         

 Vector   20  Occ=1.000000D+00  E=-2.794657D-01
              MO Center=  4.4D-01,  8.3D-01, -4.6D-02, r^2= 1.7D+00
   Bfn.  Coefficient  Atom+Function         Bfn.  Coefficient  Atom+Function  
  ----- ------------  ---------------      ----- ------------  ---------------
   121      0.349604  3 O  pz               118      0.344680  3 O  pz         
   124      0.215178  3 O  pz                59     -0.145034  2 C  s          
   278      0.141943  6 H  s                303      0.138144  7 H  s          
    63      0.129487  2 C  pz                66      0.124863  2 C  pz         
   115     -0.075574  3 O  s                114     -0.066842  3 O  s          

 Vector   21  Occ=0.000000D+00  E=-6.500442D-02
              MO Center=  1.4D-03,  8.9D-02,  1.4D-01, r^2= 2.3D+00
   Bfn.  Coefficient  Atom+Function         Bfn.  Coefficient  Atom+Function  
  ----- ------------  ---------------      ----- ------------  ---------------
     9      0.300910  1 C  px                 6      0.280199  1 C  px         
    12      0.268894  1 C  px               279      0.248212  6 H  s          
   304     -0.242479  7 H  s                122     -0.195536  3 O  px         
    67     -0.186647  2 C  px               119     -0.186594  3 O  px         
   303      0.185374  7 H  s                 10     -0.182214  1 C  py         

 Vector   22  Occ=0.000000D+00  E=-2.628509D-02
              MO Center= -1.8D-01, -2.5D-01,  1.6D+00, r^2= 1.2D+01
   Bfn.  Coefficient  Atom+Function         Bfn.  Coefficient  Atom+Function  
  ----- ------------  ---------------      ----- ------------  ---------------
     5      1.440479  1 C  s                279     -0.775164  6 H  s          
   304     -0.724959  7 H  s                  4      0.667867  1 C  s          
    59     -0.613527  2 C  s                 17      0.449742  1 C  pz         
    72      0.390905  2 C  pz               170     -0.319974  4 O  s          
   329     -0.295118  8 H  s                115     -0.291762  3 O  s          

 Vector   23  Occ=0.000000D+00  E=-4.717552D-03
              MO Center=  2.7D-01,  4.2D-01,  1.6D+00, r^2= 1.2D+01
   Bfn.  Coefficient  Atom+Function         Bfn.  Coefficient  Atom+Function  
  ----- ------------  ---------------      ----- ------------  ---------------
   329      1.236268  8 H  s                  5      0.859402  1 C  s          
    59      0.688957  2 C  s                328      0.656535  8 H  s          
   279     -0.637198  6 H  s                304     -0.634015  7 H  s          
    72      0.523827  2 C  pz                60     -0.382528  2 C  s          
   225     -0.370223  5 O  s                  4     -0.365597  1 C  s          

 Vector   24  Occ=0.000000D+00  E= 9.054568D-03
              MO Center= -3.6D-01, -7.4D-01,  1.7D+00, r^2= 1.5D+01
   Bfn.  Coefficient  Atom+Function         Bfn.  Coefficient  Atom+Function  
  ----- ------------  ---------------      ----- ------------  ---------------
   279      3.025237  6 H  s                304     -3.020006  7 H  s          
   303     -1.385611  7 H  s                278      1.288358  6 H  s          
    70      1.183973  2 C  px                67      1.120976  2 C  px         
    71     -0.699016  2 C  py                68     -0.678047  2 C  py         
    15     -0.412870  1 C  px                16      0.249015  1 C  py         

 Vector   25  Occ=0.000000D+00  E= 1.424241D-02
              MO Center= -2.1D-01, -2.7D-01,  8.1D-01, r^2= 1.6D+01
   Bfn.  Coefficient  Atom+Function         Bfn.  Coefficient  Atom+Function  
  ----- ------------  ---------------      ----- ------------  ---------------
    60      8.254295  2 C  s                  5     -7.238620  1 C  s          
    59     -4.804726  2 C  s                 72     -2.443658  2 C  pz         
    17     -2.366544  1 C  pz               278      1.977749  6 H  s          
   303      1.876809  7 H  s                  4      1.479950  1 C  s          
    88     -1.478624  2 C  dyy               85     -1.457112  2 C  dxx        

 Vector   26  Occ=0.000000D+00  E= 4.379055D-02
              MO Center=  7.1D-01,  1.2D+00,  1.6D+00, r^2= 1.5D+01
   Bfn.  Coefficient  Atom+Function         Bfn.  Coefficient  Atom+Function  
  ----- ------------  ---------------      ----- ------------  ---------------
    60      6.795319  2 C  s                329     -3.400781  8 H  s          
   225     -3.059134  5 O  s                 71      2.248127  2 C  py         
     5     -1.430883  1 C  s                 68      1.331955  2 C  py         
    72     -1.255476  2 C  pz                70      1.246450  2 C  px         
    59     -1.182968  2 C  s                115     -1.150685  3 O  s          

 Vector   27  Occ=0.000000D+00  E= 4.746979D-02
              MO Center= -4.5D-02,  2.4D-02,  1.8D-01, r^2= 1.7D+01
   Bfn.  Coefficient  Atom+Function         Bfn.  Coefficient  Atom+Function  
  ----- ------------  ---------------      ----- ------------  ---------------
    17      3.485426  1 C  pz                60     -3.338354  2 C  s          
     5      2.994318  1 C  s                 69     -1.454417  2 C  pz         
   329      1.398650  8 H  s                  4     -1.227645  1 C  s          
    72     -1.129507  2 C  pz                35     -0.976508  1 C  dzz        
   127     -0.819948  3 O  pz               303      0.811589  7 H  s          

 Vector   28  Occ=0.000000D+00  E= 5.711110D-02
              MO Center=  5.7D-02,  1.1D-01,  4.3D-01, r^2= 1.9D+01
   Bfn.  Coefficient  Atom+Function         Bfn.  Coefficient  Atom+Function  
  ----- ------------  ---------------      ----- ------------  ---------------
    59      4.905893  2 C  s                115      3.524905  3 O  s          
    16     -2.775374  1 C  py                71      2.486494  2 C  py         
   225     -2.350640  5 O  s                278     -2.355131  6 H  s          
     5     -2.119739  1 C  s                303     -2.061517  7 H  s          
     4     -2.039425  1 C  s                 60     -1.965326  2 C  s          

 Vector   29  Occ=0.000000D+00  E= 5.777988D-02
              MO Center= -3.8D-02,  2.2D-02,  2.7D-01, r^2= 1.6D+01
   Bfn.  Coefficient  Atom+Function         Bfn.  Coefficient  Atom+Function  
  ----- ------------  ---------------      ----- ------------  ---------------
    15      2.324676  1 C  px               303     -1.992589  7 H  s          
   278      1.774220  6 H  s                 16     -1.656142  1 C  py         
   279      1.289714  6 H  s                304     -1.198296  7 H  s          
    67      1.153162  2 C  px                70     -1.011783  2 C  px         
    71      0.830341  2 C  py                68     -0.711854  2 C  py         

 Vector   30  Occ=0.000000D+00  E= 6.825340D-02
              MO Center= -5.6D-01, -8.6D-01,  1.6D+00, r^2= 2.2D+01
   Bfn.  Coefficient  Atom+Function         Bfn.  Coefficient  Atom+Function  
  ----- ------------  ---------------      ----- ------------  ---------------
     5     14.141219  1 C  s                  4      7.323323  1 C  s          
   170     -6.694909  4 O  s                 59     -5.452550  2 C  s          
    72      3.894829  2 C  pz               279     -3.568191  6 H  s          
   304     -3.329764  7 H  s                115     -2.414087  3 O  s          
    17      2.169039  1 C  pz                69      1.728423  2 C  pz         

 Vector   31  Occ=0.000000D+00  E= 7.621555D-02
              MO Center= -3.4D-01, -4.1D-01,  1.7D+00, r^2= 2.0D+01
   Bfn.  Coefficient  Atom+Function         Bfn.  Coefficient  Atom+Function  
  ----- ------------  ---------------      ----- ------------  ---------------
   279      6.418955  6 H  s                303     -6.363771  7 H  s          
   304     -6.346052  7 H  s                278      6.298650  6 H  s          
    67      4.675241  2 C  px                70      4.575287  2 C  px         
    71     -2.843393  2 C  py                68     -2.700937  2 C  py         
    88      0.992520  2 C  dyy                5      0.948658  1 C  s          

 Vector   32  Occ=0.000000D+00  E= 8.053280D-02
              MO Center=  3.5D-01,  2.6D-01,  1.7D+00, r^2= 1.6D+01
   Bfn.  Coefficient  Atom+Function         Bfn.  Coefficient  Atom+Function  
  ----- ------------  ---------------      ----- ------------  ---------------
    60      5.722990  2 C  s                  5     -4.219910  1 C  s          
   225     -3.943181  5 O  s                328      3.663666  8 H  s          
   170      2.895616  4 O  s                115      2.740467  3 O  s          
   329      2.167110  8 H  s                 69      1.971370  2 C  pz         
    17     -1.698597  1 C  pz               304     -1.667030  7 H  s          

 Vector   33  Occ=0.000000D+00  E= 9.270728D-02
              MO Center= -2.3D-01, -2.4D-01,  1.7D+00, r^2= 1.4D+01
   Bfn.  Coefficient  Atom+Function         Bfn.  Coefficient  Atom+Function  
  ----- ------------  ---------------      ----- ------------  ---------------
     5      4.715756  1 C  s                279      4.030277  6 H  s          
    60     -3.919933  2 C  s                304     -3.923214  7 H  s          
   303     -3.126914  7 H  s                278      3.004904  6 H  s          
    70      2.445434  2 C  px                87      2.078488  2 C  dxz        
    67      2.010457  2 C  px                71     -1.303835  2 C  py         

 Vector   34  Occ=0.000000D+00  E= 9.455377D-02
              MO Center=  1.5D-01,  4.3D-02,  1.1D+00, r^2= 1.5D+01
   Bfn.  Coefficient  Atom+Function         Bfn.  Coefficient  Atom+Function  
  ----- ------------  ---------------      ----- ------------  ---------------
     5     23.388532  1 C  s                 60    -20.279412  2 C  s          
    59      5.720817  2 C  s                 72      4.804269  2 C  pz         
    17      4.471726  1 C  pz               115     -3.038967  3 O  s          
     4     -2.587498  1 C  s                 90      2.400130  2 C  dzz        
    88      2.081586  2 C  dyy               35     -2.011360  1 C  dzz        

 Vector   35  Occ=0.000000D+00  E= 1.152658D-01
              MO Center=  7.5D-01,  1.3D+00,  9.6D-01, r^2= 1.6D+01
   Bfn.  Coefficient  Atom+Function         Bfn.  Coefficient  Atom+Function  
  ----- ------------  ---------------      ----- ------------  ---------------
    60     17.765114  2 C  s                  5    -15.848240  1 C  s          
   225     -8.407847  5 O  s                 59      6.861380  2 C  s          
   170      6.761005  4 O  s                278     -5.519316  6 H  s          
   303     -5.481081  7 H  s                 17     -4.045933  1 C  pz         
   115      4.012350  3 O  s                  4     -3.904593  1 C  s          

 Vector   36  Occ=0.000000D+00  E= 1.218403D-01
              MO Center=  2.4D-01,  3.9D-01,  9.3D-01, r^2= 1.4D+01
   Bfn.  Coefficient  Atom+Function         Bfn.  Coefficient  Atom+Function  
  ----- ------------  ---------------      ----- ------------  ---------------
    59     18.854161  2 C  s                 60    -16.898876  2 C  s          
     5     15.398692  1 C  s                  4    -11.868916  1 C  s          
   278     -6.984399  6 H  s                303     -6.924266  7 H  s          
    85      5.225715  2 C  dxx               35     -5.068409  1 C  dzz        
    90      4.649242  2 C  dzz               14     -4.474506  1 C  pz         

 Vector   37  Occ=0.000000D+00  E= 1.273439D-01
              MO Center=  4.0D-01,  7.4D-01,  2.8D-01, r^2= 1.6D+01
   Bfn.  Coefficient  Atom+Function         Bfn.  Coefficient  Atom+Function  
  ----- ------------  ---------------      ----- ------------  ---------------
     4     12.524980  1 C  s                 59     -6.934607  2 C  s          
     5      6.636636  1 C  s                115     -6.202628  3 O  s          
   328      5.789252  8 H  s                170     -5.604135  4 O  s          
    69      4.085632  2 C  pz                35      3.878589  1 C  dzz        
   225     -3.822145  5 O  s                 68     -2.465529  2 C  py         

 Vector   38  Occ=0.000000D+00  E= 1.430103D-01
              MO Center= -1.7D-02, -2.5D-01,  2.0D+00, r^2= 1.3D+01
   Bfn.  Coefficient  Atom+Function         Bfn.  Coefficient  Atom+Function  
  ----- ------------  ---------------      ----- ------------  ---------------
    60    -20.467016  2 C  s                  5     19.982554  1 C  s          
    59     11.051250  2 C  s                328     -8.582716  8 H  s          
   225      8.052024  5 O  s                 72      6.917114  2 C  pz         
   303     -5.958807  7 H  s                115     -5.603849  3 O  s          
   278     -4.579376  6 H  s                 88      3.881282  2 C  dyy        

 Vector   39  Occ=0.000000D+00  E= 1.438927D-01
              MO Center=  2.1D-02,  2.4D-01,  5.0D-01, r^2= 1.5D+01
   Bfn.  Coefficient  Atom+Function         Bfn.  Coefficient  Atom+Function  
  ----- ------------  ---------------      ----- ------------  ---------------
    60     -6.008371  2 C  s                  5      5.920517  1 C  s          
   278     -3.792839  6 H  s                 59      2.971997  2 C  s          
   328     -2.561544  8 H  s                225      2.545498  5 O  s          
    72      2.049632  2 C  pz                85      1.861179  2 C  dxx        
    86      1.781157  2 C  dxy              115     -1.756032  3 O  s          

 Vector   40  Occ=0.000000D+00  E= 1.550377D-01
              MO Center=  1.1D-01,  2.2D-01,  6.6D-01, r^2= 1.4D+01
   Bfn.  Coefficient  Atom+Function         Bfn.  Coefficient  Atom+Function  
  ----- ------------  ---------------      ----- ------------  ---------------
    59     24.739244  2 C  s                303    -13.294117  7 H  s          
   278    -13.098045  6 H  s                 85      5.294342  2 C  dxx        
    88      5.254850  2 C  dyy              170      5.087605  4 O  s          
    90      4.681441  2 C  dzz                4     -4.434571  1 C  s          
    60     -4.435978  2 C  s                 16     -3.793134  1 C  py         

 Vector   41  Occ=0.000000D+00  E= 1.575978D-01
              MO Center=  1.0D-01,  1.6D-01,  1.2D+00, r^2= 1.1D+01
   Bfn.  Coefficient  Atom+Function         Bfn.  Coefficient  Atom+Function  
  ----- ------------  ---------------      ----- ------------  ---------------
    70      4.340383  2 C  px               278     -4.286864  6 H  s          
    67     -3.799567  2 C  px               303      3.723833  7 H  s          
   279      2.745696  6 H  s                304     -2.617556  7 H  s          
   235     -2.588157  5 O  px                71     -2.474274  2 C  py         
    68      2.221827  2 C  py               288      1.650812  6 H  pz         

 Vector   42  Occ=0.000000D+00  E= 1.691287D-01
              MO Center=  2.3D-01,  5.3D-01, -3.0D-01, r^2= 1.6D+01
   Bfn.  Coefficient  Atom+Function         Bfn.  Coefficient  Atom+Function  
  ----- ------------  ---------------      ----- ------------  ---------------
    17      5.345708  1 C  pz               115     -5.060702  3 O  s          
   127     -4.461759  3 O  pz               182     -3.371738  4 O  pz         
     4      3.267028  1 C  s                225     -2.502000  5 O  s          
   236      2.428732  5 O  py               170     -2.311034  4 O  s          
   329     -1.950072  8 H  s                 33      1.809836  1 C  dyy        

 Vector   43  Occ=0.000000D+00  E= 1.766022D-01
              MO Center=  2.1D-01,  3.3D-01,  4.4D-01, r^2= 1.3D+01
   Bfn.  Coefficient  Atom+Function         Bfn.  Coefficient  Atom+Function  
  ----- ------------  ---------------      ----- ------------  ---------------
    15      3.112983  1 C  px               125     -2.144850  3 O  px         
    16     -1.907947  1 C  py               279      1.773631  6 H  s          
   304     -1.774854  7 H  s                180     -1.631452  4 O  px         
   278     -1.495624  6 H  s                 32     -1.469705  1 C  dxz        
    87     -1.471796  2 C  dxz              303      1.427980  7 H  s          

 Vector   44  Occ=0.000000D+00  E= 1.852404D-01
              MO Center=  5.3D-01,  9.8D-01,  2.5D-01, r^2= 1.6D+01
   Bfn.  Coefficient  Atom+Function         Bfn.  Coefficient  Atom+Function  
  ----- ------------  ---------------      ----- ------------  ---------------
     5     13.196553  1 C  s                225     -8.186588  5 O  s          
    59      7.678730  2 C  s                115     -7.632575  3 O  s          
   170     -4.909484  4 O  s                  4      4.461263  1 C  s          
   237      3.731603  5 O  pz               303     -3.243714  7 H  s          
   278     -3.166644  6 H  s                182     -3.065533  4 O  pz         

 Vector   45  Occ=0.000000D+00  E= 1.926021D-01
              MO Center=  8.7D-02,  3.1D-01, -3.0D-01, r^2= 1.3D+01
   Bfn.  Coefficient  Atom+Function         Bfn.  Coefficient  Atom+Function  
  ----- ------------  ---------------      ----- ------------  ---------------
     5     16.405515  1 C  s                 60    -10.443641  2 C  s          
    17      6.998251  1 C  pz                59     -6.247179  2 C  s          
   115     -5.853472  3 O  s                225      4.738170  5 O  s          
     4      4.438869  1 C  s                278      3.784009  6 H  s          
   303      3.654598  7 H  s                170     -3.291300  4 O  s          

 Vector   46  Occ=0.000000D+00  E= 1.995655D-01
              MO Center=  1.2D-01,  1.8D-01,  7.6D-01, r^2= 1.3D+01
   Bfn.  Coefficient  Atom+Function         Bfn.  Coefficient  Atom+Function  
  ----- ------------  ---------------      ----- ------------  ---------------
    70     -3.646850  2 C  px                15      3.332976  1 C  px         
   304      1.899129  7 H  s                 71      1.814266  2 C  py         
   279     -1.761097  6 H  s                125     -1.510374  3 O  px         
    87      1.462853  2 C  dxz               16     -1.437352  1 C  py         
   180     -1.433810  4 O  px                 5     -1.402346  1 C  s          

 Vector   47  Occ=0.000000D+00  E= 2.020184D-01
              MO Center=  1.7D-01,  2.7D-01,  1.4D+00, r^2= 1.6D+01
   Bfn.  Coefficient  Atom+Function         Bfn.  Coefficient  Atom+Function  
  ----- ------------  ---------------      ----- ------------  ---------------
     5     12.433474  1 C  s                 59     -9.913831  2 C  s          
   278      9.124364  6 H  s                303      9.087712  7 H  s          
   328     -6.443222  8 H  s                 69     -6.074987  2 C  pz         
   237     -5.117914  5 O  pz                16     -4.844489  1 C  py         
     4     -4.782984  1 C  s                 72      4.506941  2 C  pz         

 Vector   48  Occ=0.000000D+00  E= 2.177179D-01
              MO Center=  3.0D-02,  1.2D-02,  1.3D+00, r^2= 1.4D+01
   Bfn.  Coefficient  Atom+Function         Bfn.  Coefficient  Atom+Function  
  ----- ------------  ---------------      ----- ------------  ---------------
    59     22.784274  2 C  s                 60    -16.023903  2 C  s          
   278     -9.128195  6 H  s                303     -9.138483  7 H  s          
   115      8.900764  3 O  s                225     -8.322598  5 O  s          
    85      7.127013  2 C  dxx                5      6.862111  1 C  s          
    88      6.591074  2 C  dyy               90      6.160646  2 C  dzz        

 Vector   49  Occ=0.000000D+00  E= 2.274022D-01
              MO Center= -4.4D-01, -6.6D-01,  2.7D-01, r^2= 1.4D+01
   Bfn.  Coefficient  Atom+Function         Bfn.  Coefficient  Atom+Function  
  ----- ------------  ---------------      ----- ------------  ---------------
   170     16.059447  4 O  s                  5    -12.832762  1 C  s          
   225     -6.352942  5 O  s                 60      5.497836  2 C  s          
    59      4.648220  2 C  s                 34     -4.394995  1 C  dyz        
     4     -4.210139  1 C  s                 68      3.906847  2 C  py         
    16      3.880338  1 C  py               328      3.514164  8 H  s          

 Vector   50  Occ=0.000000D+00  E= 2.322886D-01
              MO Center=  1.4D-01,  2.9D-01,  5.0D-01, r^2= 1.2D+01
   Bfn.  Coefficient  Atom+Function         Bfn.  Coefficient  Atom+Function  
  ----- ------------  ---------------      ----- ------------  ---------------
     5     26.921072  1 C  s                 60    -21.576930  2 C  s          
    59     20.458541  2 C  s                170     -8.396665  4 O  s          
     4     -6.353323  1 C  s                 14     -6.001199  1 C  pz         
    90      5.904168  2 C  dzz               69     -5.605103  2 C  pz         
   115     -5.607836  3 O  s                303     -4.251059  7 H  s          

 Vector   51  Occ=0.000000D+00  E= 2.448723D-01
              MO Center=  1.0D-01,  2.3D-01,  1.6D+00, r^2= 1.2D+01
   Bfn.  Coefficient  Atom+Function         Bfn.  Coefficient  Atom+Function  
  ----- ------------  ---------------      ----- ------------  ---------------
   278     17.523575  6 H  s                303    -17.254994  7 H  s          
    67     12.708262  2 C  px                68     -7.485212  2 C  py         
    70      5.153485  2 C  px               279      4.980292  6 H  s          
   304     -4.824613  7 H  s                 87      3.463060  2 C  dxz        
   312     -3.176164  7 H  py                71     -3.021684  2 C  py         

 Vector   52  Occ=0.000000D+00  E= 2.588289D-01
              MO Center= -2.5D-01, -4.0D-01,  1.6D+00, r^2= 1.1D+01
   Bfn.  Coefficient  Atom+Function         Bfn.  Coefficient  Atom+Function  
  ----- ------------  ---------------      ----- ------------  ---------------
   278     15.121231  6 H  s                303    -14.174581  7 H  s          
    67     10.540351  2 C  px                68     -6.097232  2 C  py         
   279      3.991515  6 H  s                304     -3.855589  7 H  s          
   286      3.443863  6 H  px               312     -3.336444  7 H  py         
    70      2.650801  2 C  px               288     -2.550042  6 H  pz         

 Vector   53  Occ=0.000000D+00  E= 2.618409D-01
              MO Center= -1.0D-01, -4.3D-01,  2.2D+00, r^2= 1.3D+01
   Bfn.  Coefficient  Atom+Function         Bfn.  Coefficient  Atom+Function  
  ----- ------------  ---------------      ----- ------------  ---------------
     4     18.541439  1 C  s                 60     17.691016  2 C  s          
   225    -15.494990  5 O  s                 69     13.032217  2 C  pz         
   328      8.502716  8 H  s                303     -8.166625  7 H  s          
   170     -7.155688  4 O  s                 14      6.062998  1 C  pz         
   278     -5.972786  6 H  s                  5     -3.838318  1 C  s          

 Vector   54  Occ=0.000000D+00  E= 2.699263D-01
              MO Center=  2.0D-02,  3.1D-02,  1.0D+00, r^2= 1.0D+01
   Bfn.  Coefficient  Atom+Function         Bfn.  Coefficient  Atom+Function  
  ----- ------------  ---------------      ----- ------------  ---------------
    60    -16.150343  2 C  s                  5     15.197752  1 C  s          
   115    -10.901462  3 O  s                 59     -9.389725  2 C  s          
   225      7.905454  5 O  s                278      6.814487  6 H  s          
   303      6.625685  7 H  s                 86     -5.805575  2 C  dxy        
    14     -5.656656  1 C  pz               328      3.455668  8 H  s          

 Vector   55  Occ=0.000000D+00  E= 2.861611D-01
              MO Center=  1.2D-01,  2.9D-01,  4.5D-01, r^2= 1.1D+01
   Bfn.  Coefficient  Atom+Function         Bfn.  Coefficient  Atom+Function  
  ----- ------------  ---------------      ----- ------------  ---------------
   278     14.411212  6 H  s                303     13.840333  7 H  s          
   115    -12.660659  3 O  s                 69    -11.798266  2 C  pz         
    14    -10.660653  1 C  pz                59     -9.344390  2 C  s          
   170     -9.023646  4 O  s                 60      7.605742  2 C  s          
     4     -6.574990  1 C  s                 33      6.459121  1 C  dyy        

 Vector   56  Occ=0.000000D+00  E= 3.013762D-01
              MO Center=  2.5D-01,  5.0D-01,  2.4D-01, r^2= 9.9D+00
   Bfn.  Coefficient  Atom+Function         Bfn.  Coefficient  Atom+Function  
  ----- ------------  ---------------      ----- ------------  ---------------
    87      6.792905  2 C  dxz              278      5.925996  6 H  s          
   303     -5.449132  7 H  s                 32      5.172339  1 C  dxz        
    89     -4.113476  2 C  dyz               34     -3.033976  1 C  dyz        
   286      2.395925  6 H  px                12      2.372591  1 C  px         
    70     -1.975943  2 C  px               312     -1.942002  7 H  py         

 Vector   57  Occ=0.000000D+00  E= 3.088350D-01
              MO Center=  7.1D-02,  1.4D-01,  5.2D-01, r^2= 1.3D+01
   Bfn.  Coefficient  Atom+Function         Bfn.  Coefficient  Atom+Function  
  ----- ------------  ---------------      ----- ------------  ---------------
    59     28.802083  2 C  s                  4    -21.160451  1 C  s          
   170     14.627688  4 O  s                328     14.524930  8 H  s          
   303    -10.478233  7 H  s                 35    -10.337520  1 C  dzz        
    86    -10.117434  2 C  dxy              278     -9.633235  6 H  s          
    68     -8.953520  2 C  py                14     -8.010073  1 C  pz         

 Vector   58  Occ=0.000000D+00  E= 3.197958D-01
              MO Center=  5.8D-02,  2.7D-01,  1.8D+00, r^2= 1.2D+01
   Bfn.  Coefficient  Atom+Function         Bfn.  Coefficient  Atom+Function  
  ----- ------------  ---------------      ----- ------------  ---------------
    59    -27.458375  2 C  s                  4     26.640538  1 C  s          
   225     20.455696  5 O  s                303     15.016839  7 H  s          
    90    -13.818561  2 C  dzz              278     11.758197  6 H  s          
    88    -11.343589  2 C  dyy              115    -10.601100  3 O  s          
    85     -9.968504  2 C  dxx               14      8.523414  1 C  pz         

 Vector   59  Occ=0.000000D+00  E= 3.226852D-01
              MO Center= -9.7D-02, -4.1D-01,  1.6D+00, r^2= 1.0D+01
   Bfn.  Coefficient  Atom+Function         Bfn.  Coefficient  Atom+Function  
  ----- ------------  ---------------      ----- ------------  ---------------
   278     15.771105  6 H  s                303    -11.447797  7 H  s          
    67      9.536301  2 C  px               286      6.852941  6 H  px         
   312     -5.909184  7 H  py                68     -5.665434  2 C  py         
    59     -5.081407  2 C  s                  4      4.412285  1 C  s          
    70     -3.829896  2 C  px               225      2.619398  5 O  s          

 Vector   60  Occ=0.000000D+00  E= 3.348709D-01
              MO Center=  7.4D-02,  1.3D-01,  6.9D-01, r^2= 1.1D+01
   Bfn.  Coefficient  Atom+Function         Bfn.  Coefficient  Atom+Function  
  ----- ------------  ---------------      ----- ------------  ---------------
    59    -30.157062  2 C  s                  5     27.503892  1 C  s          
   278     18.745392  6 H  s                303     16.414881  7 H  s          
    60    -16.003941  2 C  s                225     10.987715  5 O  s          
     4      9.906714  1 C  s                170     -9.321162  4 O  s          
    90     -6.227486  2 C  dzz              115     -6.198159  3 O  s          

 Vector   61  Occ=0.000000D+00  E= 3.361019D-01
              MO Center= -1.2D-01, -2.4D-01,  1.7D+00, r^2= 9.5D+00
   Bfn.  Coefficient  Atom+Function         Bfn.  Coefficient  Atom+Function  
  ----- ------------  ---------------      ----- ------------  ---------------
   303     23.524591  7 H  s                278    -20.775759  6 H  s          
    67    -10.407038  2 C  px                68      6.665156  2 C  py         
   311     -5.671235  7 H  px               286     -5.138057  6 H  px         
    88     -4.250143  2 C  dyy               86      3.991707  2 C  dxy        
   312      3.712180  7 H  py               287      3.202180  6 H  py         

 Vector   62  Occ=0.000000D+00  E= 3.461813D-01
              MO Center=  3.4D-01,  5.6D-01,  1.3D+00, r^2= 1.3D+01
   Bfn.  Coefficient  Atom+Function         Bfn.  Coefficient  Atom+Function  
  ----- ------------  ---------------      ----- ------------  ---------------
     4     23.645576  1 C  s                 59    -17.240257  2 C  s          
   225    -16.234367  5 O  s                 14     11.577146  1 C  pz         
    60     11.432148  2 C  s                115    -11.486517  3 O  s          
    69     11.220942  2 C  pz                35      9.100965  1 C  dzz        
   328      7.282796  8 H  s                 90     -5.132768  2 C  dzz        

 Vector   63  Occ=0.000000D+00  E= 3.748109D-01
              MO Center= -3.3D-01, -5.2D-01,  1.4D+00, r^2= 8.7D+00
   Bfn.  Coefficient  Atom+Function         Bfn.  Coefficient  Atom+Function  
  ----- ------------  ---------------      ----- ------------  ---------------
    87      8.534598  2 C  dxz               89     -4.583463  2 C  dyz        
   313     -4.493031  7 H  pz               288      4.449115  6 H  pz         
   303      2.789891  7 H  s                 70      2.658199  2 C  px         
    59     -2.552366  2 C  s                 88     -2.268022  2 C  dyy        
     5     -1.961781  1 C  s                311     -1.960786  7 H  px         

 Vector   64  Occ=0.000000D+00  E= 3.755707D-01
              MO Center=  3.0D-01,  4.8D-01,  6.5D-01, r^2= 1.1D+01
   Bfn.  Coefficient  Atom+Function         Bfn.  Coefficient  Atom+Function  
  ----- ------------  ---------------      ----- ------------  ---------------
   303     15.568663  7 H  s                278     15.460316  6 H  s          
   115     13.595272  3 O  s                  5    -11.976317  1 C  s          
     4    -11.646307  1 C  s                 69     -8.028488  2 C  pz         
    59     -7.238049  2 C  s                 35     -7.084861  1 C  dzz        
    60      5.971523  2 C  s                 89      5.629204  2 C  dyz        

 Vector   65  Occ=0.000000D+00  E= 3.758529D-01
              MO Center=  6.4D-04, -2.9D-02,  1.1D+00, r^2= 9.7D+00
   Bfn.  Coefficient  Atom+Function         Bfn.  Coefficient  Atom+Function  
  ----- ------------  ---------------      ----- ------------  ---------------
    59     40.672767  2 C  s                 60    -25.901132  2 C  s          
     5     23.683369  1 C  s                328    -20.445879  8 H  s          
   303    -17.491100  7 H  s                278    -17.384643  6 H  s          
    88     14.505332  2 C  dyy               86     13.809701  2 C  dxy        
    90      7.873996  2 C  dzz               85      6.990227  2 C  dxx        

 Vector   66  Occ=0.000000D+00  E= 3.840109D-01
              MO Center=  1.6D-01,  2.5D-01,  1.2D+00, r^2= 9.9D+00
   Bfn.  Coefficient  Atom+Function         Bfn.  Coefficient  Atom+Function  
  ----- ------------  ---------------      ----- ------------  ---------------
    59     69.840435  2 C  s                303    -43.533611  7 H  s          
   278    -43.302720  6 H  s                 60    -26.037820  2 C  s          
     5     21.304202  1 C  s                 85     19.632567  2 C  dxx        
    88     15.527467  2 C  dyy               90     13.322101  2 C  dzz        
    68    -13.044923  2 C  py               225    -11.666171  5 O  s          

 Vector   67  Occ=0.000000D+00  E= 3.969304D-01
              MO Center=  2.9D-01,  5.0D-01,  8.8D-01, r^2= 1.1D+01
   Bfn.  Coefficient  Atom+Function         Bfn.  Coefficient  Atom+Function  
  ----- ------------  ---------------      ----- ------------  ---------------
    59     50.311510  2 C  s                303    -30.255531  7 H  s          
   278    -30.007161  6 H  s                  5    -14.611855  1 C  s          
   170     13.809903  4 O  s                  4    -13.353705  1 C  s          
    88     10.733457  2 C  dyy               85     10.097493  2 C  dxx        
    89     -9.221766  2 C  dyz              225      7.370367  5 O  s          

 Vector   68  Occ=0.000000D+00  E= 4.018313D-01
              MO Center=  1.1D-01,  1.9D-01,  1.1D+00, r^2= 1.0D+01
   Bfn.  Coefficient  Atom+Function         Bfn.  Coefficient  Atom+Function  
  ----- ------------  ---------------      ----- ------------  ---------------
   278      6.692480  6 H  s                303     -5.321599  7 H  s          
    87     -5.120229  2 C  dxz               89      3.788427  2 C  dyz        
    12     -3.277509  1 C  px                67      2.988101  2 C  px         
    85     -2.252180  2 C  dxx               30      2.232571  1 C  dxx        
   235      2.220155  5 O  px                31      2.190427  1 C  dxy        

 Vector   69  Occ=0.000000D+00  E= 4.223899D-01
              MO Center=  5.8D-01,  9.4D-01,  1.4D+00, r^2= 1.2D+01
   Bfn.  Coefficient  Atom+Function         Bfn.  Coefficient  Atom+Function  
  ----- ------------  ---------------      ----- ------------  ---------------
    59     30.901927  2 C  s                  5     17.895033  1 C  s          
    60    -15.335866  2 C  s                278    -13.049357  6 H  s          
   303    -12.357126  7 H  s                328    -10.812837  8 H  s          
   115    -10.697083  3 O  s                170     -7.294854  4 O  s          
   338     -7.229776  8 H  pz                85      6.749312  2 C  dxx        

 Vector   70  Occ=0.000000D+00  E= 4.376036D-01
              MO Center=  1.5D-01,  2.2D-01,  1.4D+00, r^2= 9.2D+00
   Bfn.  Coefficient  Atom+Function         Bfn.  Coefficient  Atom+Function  
  ----- ------------  ---------------      ----- ------------  ---------------
   225     24.590046  5 O  s                328    -21.126767  8 H  s          
    59    -14.909810  2 C  s                 89    -13.542566  2 C  dyz        
     4    -13.045926  1 C  s                 86     12.072559  2 C  dxy        
   278     10.521386  6 H  s                303     10.259627  7 H  s          
    60     -9.839710  2 C  s                 34     -8.457138  1 C  dyz        

 Vector   71  Occ=0.000000D+00  E= 4.453498D-01
              MO Center=  2.0D-01,  3.9D-01,  5.4D-01, r^2= 9.0D+00
   Bfn.  Coefficient  Atom+Function         Bfn.  Coefficient  Atom+Function  
  ----- ------------  ---------------      ----- ------------  ---------------
   303    -15.023179  7 H  s                278     14.540895  6 H  s          
    87      8.731966  2 C  dxz               12      6.951094  1 C  px         
    86     -6.193508  2 C  dxy               88      5.854168  2 C  dyy        
    67      5.674627  2 C  px                85     -5.103992  2 C  dxx        
    89     -4.599798  2 C  dyz               13     -4.412826  1 C  py         

 Vector   72  Occ=0.000000D+00  E= 4.624862D-01
              MO Center=  1.0D-01,  2.0D-01,  5.3D-01, r^2= 9.5D+00
   Bfn.  Coefficient  Atom+Function         Bfn.  Coefficient  Atom+Function  
  ----- ------------  ---------------      ----- ------------  ---------------
    60     16.490054  2 C  s                 59    -13.508641  2 C  s          
     5    -12.027068  1 C  s                 13     12.067645  1 C  py         
   170      9.835639  4 O  s                278      7.829841  6 H  s          
    12      7.574410  1 C  px               303      7.517710  7 H  s          
     4     -5.706563  1 C  s                 68      5.422054  2 C  py         

 Vector   73  Occ=0.000000D+00  E= 4.741764D-01
              MO Center= -2.4D-01, -3.3D-01,  2.5D-01, r^2= 1.1D+01
   Bfn.  Coefficient  Atom+Function         Bfn.  Coefficient  Atom+Function  
  ----- ------------  ---------------      ----- ------------  ---------------
   115     18.506560  3 O  s                  4    -16.402659  1 C  s          
    34     15.580024  1 C  dyz              303     12.975057  7 H  s          
   278     12.337102  6 H  s                 32      9.291707  1 C  dxz        
    59     -8.816965  2 C  s                  5     -8.350067  1 C  s          
   225     -7.516703  5 O  s                 33     -6.726492  1 C  dyy        

 Vector   74  Occ=0.000000D+00  E= 4.836741D-01
              MO Center=  2.0D-01,  3.5D-01,  7.1D-01, r^2= 1.1D+01
   Bfn.  Coefficient  Atom+Function         Bfn.  Coefficient  Atom+Function  
  ----- ------------  ---------------      ----- ------------  ---------------
    59     35.459496  2 C  s                278    -20.289457  6 H  s          
   303    -20.155038  7 H  s                115     15.866483  3 O  s          
     4    -14.667345  1 C  s                  5    -12.689596  1 C  s          
   328    -11.626846  8 H  s                 85     10.239913  2 C  dxx        
   170      9.497546  4 O  s                 88      8.169421  2 C  dyy        

 Vector   75  Occ=0.000000D+00  E= 5.018124D-01
              MO Center= -7.7D-02, -7.6D-02,  5.5D-01, r^2= 8.6D+00
   Bfn.  Coefficient  Atom+Function         Bfn.  Coefficient  Atom+Function  
  ----- ------------  ---------------      ----- ------------  ---------------
   278     18.170543  6 H  s                303    -17.123558  7 H  s          
    12      7.650996  1 C  px               286      7.225896  6 H  px         
   312     -6.706519  7 H  py                32      5.905651  1 C  dxz        
    87      4.822800  2 C  dxz               13     -4.522304  1 C  py         
   277     -3.496475  6 H  s                 34     -3.429901  1 C  dyz        

 Vector   76  Occ=0.000000D+00  E= 5.146349D-01
              MO Center=  6.1D-02,  1.2D-01,  9.1D-01, r^2= 1.0D+01
   Bfn.  Coefficient  Atom+Function         Bfn.  Coefficient  Atom+Function  
  ----- ------------  ---------------      ----- ------------  ---------------
    59     24.352949  2 C  s                328    -20.307461  8 H  s          
   303    -18.414277  7 H  s                278    -17.537012  6 H  s          
    34     11.497787  1 C  dyz               68    -10.377437  2 C  py         
    60     -9.939499  2 C  s                  5      8.692312  1 C  s          
    69     -8.067172  2 C  pz               170     -7.531144  4 O  s          

 Vector   77  Occ=0.000000D+00  E= 5.445701D-01
              MO Center=  9.1D-02,  1.9D-01,  8.0D-01, r^2= 1.0D+01
   Bfn.  Coefficient  Atom+Function         Bfn.  Coefficient  Atom+Function  
  ----- ------------  ---------------      ----- ------------  ---------------
     4     47.258128  1 C  s                170    -23.164798  4 O  s          
   328    -22.465374  8 H  s                 31     20.069719  1 C  dxy        
     5     16.928064  1 C  s                 86    -16.324720  2 C  dxy        
    33     14.996103  1 C  dyy               34     13.631955  1 C  dyz        
   278    -13.506106  6 H  s                 69     13.370027  2 C  pz         

 Vector   78  Occ=0.000000D+00  E= 5.556918D-01
              MO Center=  4.1D-01,  5.9D-01,  1.7D+00, r^2= 7.2D+00
   Bfn.  Coefficient  Atom+Function         Bfn.  Coefficient  Atom+Function  
  ----- ------------  ---------------      ----- ------------  ---------------
   303    -16.275776  7 H  s                278     15.743645  6 H  s          
    67     13.982081  2 C  px                68     -8.370796  2 C  py         
    86     -5.397160  2 C  dxy               88      4.807603  2 C  dyy        
    85     -4.346550  2 C  dxx               87      3.898922  2 C  dxz        
   286      2.118506  6 H  px                89     -1.898791  2 C  dyz        

 Vector   79  Occ=0.000000D+00  E= 5.610555D-01
              MO Center=  3.2D-01,  4.5D-01,  1.5D+00, r^2= 8.4D+00
   Bfn.  Coefficient  Atom+Function         Bfn.  Coefficient  Atom+Function  
  ----- ------------  ---------------      ----- ------------  ---------------
[...]

 Vector  343  Occ=0.000000D+00  E= 1.659155D+01
              MO Center=  2.3D-02,  1.5D-01, -2.3D-01, r^2= 2.7D+00
   Bfn.  Coefficient  Atom+Function         Bfn.  Coefficient  Atom+Function  
  ----- ------------  ---------------      ----- ------------  ---------------
     4     16.965262  1 C  s                169     -9.157872  4 O  s          
   167     -8.957923  4 O  s                112     -8.189959  3 O  s          
   114     -7.923883  3 O  s                170     -6.821633  4 O  s          
     5      6.482926  1 C  s                115     -4.950649  3 O  s          
    59     -4.646041  2 C  s                 31      3.874972  1 C  dxy        

 Vector  344  Occ=0.000000D+00  E= 1.664886D+01
              MO Center=  5.4D-02,  2.1D-01, -4.0D-01, r^2= 2.3D+00
   Bfn.  Coefficient  Atom+Function         Bfn.  Coefficient  Atom+Function  
  ----- ------------  ---------------      ----- ------------  ---------------
   169    -11.943825  4 O  s                114     11.665909  3 O  s          
   112      7.414551  3 O  s                167     -7.229751  4 O  s          
    59      7.038602  2 C  s                  4     -5.356028  1 C  s          
   123     -4.745991  3 O  py               124      4.763143  3 O  pz         
   120     -4.353484  3 O  py               179     -4.347860  4 O  pz         

 Vector  345  Occ=0.000000D+00  E= 1.676638D+01
              MO Center=  6.2D-01,  9.6D-01,  1.9D+00, r^2= 1.5D+00
   Bfn.  Coefficient  Atom+Function         Bfn.  Coefficient  Atom+Function  
  ----- ------------  ---------------      ----- ------------  ---------------
   222     11.694911  5 O  s                224      8.221306  5 O  s          
   114     -6.887553  3 O  s                247     -5.119881  5 O  dyy        
   244     -4.976684  5 O  dxx              249     -4.843841  5 O  dzz        
   221      4.721438  5 O  s                238     -3.880482  5 O  dxx        
   241     -3.796403  5 O  dyy              243     -3.766951  5 O  dzz        

 Vector  346  Occ=0.000000D+00  E= 1.799390D+01
              MO Center=  5.3D-01,  9.3D-01,  5.1D-01, r^2= 2.9D+00
   Bfn.  Coefficient  Atom+Function         Bfn.  Coefficient  Atom+Function  
  ----- ------------  ---------------      ----- ------------  ---------------
     4     21.655528  1 C  s                 59    -19.578161  2 C  s          
    68     12.991716  2 C  py               278     12.155328  6 H  s          
   303     12.156249  7 H  s                123      9.466247  3 O  py         
   120      9.248959  3 O  py               224      9.205712  5 O  s          
    67      8.020336  2 C  px               225      7.496518  5 O  s          

 Vector  347  Occ=0.000000D+00  E= 1.898235D+01
              MO Center=  1.9D-01,  3.4D-01,  7.1D-01, r^2= 4.1D+00
   Bfn.  Coefficient  Atom+Function         Bfn.  Coefficient  Atom+Function  
  ----- ------------  ---------------      ----- ------------  ---------------
    59    -23.465949  2 C  s                 13     22.741118  1 C  py         
    68    -18.078038  2 C  py                12     13.629410  1 C  px         
    86    -12.208238  2 C  dxy               67    -11.048097  2 C  px         
   234     -9.971726  5 O  pz               179      9.245421  4 O  pz         
   123      8.642408  3 O  py               255      7.925406  5 O  dzz        

 Vector  348  Occ=0.000000D+00  E= 2.007395D+01
              MO Center= -3.2D-02,  1.7D-02,  2.3D-01, r^2= 4.5D+00
   Bfn.  Coefficient  Atom+Function         Bfn.  Coefficient  Atom+Function  
  ----- ------------  ---------------      ----- ------------  ---------------
     4     34.678887  1 C  s                 14    -19.851975  1 C  pz         
    50    -17.568600  1 C  fxyz              31     17.250780  1 C  dxy        
    34     16.116341  1 C  dyz               53    -14.329416  1 C  fyyz       
    68    -13.623365  2 C  py               170    -12.052768  4 O  s          
    86    -11.613520  2 C  dxy              328    -11.641046  8 H  s          

 Vector  349  Occ=0.000000D+00  E= 2.906202D+01
              MO Center= -2.7D-03,  7.4D-02,  1.3D-01, r^2= 1.5D+00
   Bfn.  Coefficient  Atom+Function         Bfn.  Coefficient  Atom+Function  
  ----- ------------  ---------------      ----- ------------  ---------------
     2     30.788300  1 C  s                169    -27.835492  4 O  s          
    53    -15.319537  1 C  fyyz               1     15.174259  1 C  s          
    50    -14.180602  1 C  fxyz              25     12.531923  1 C  dxy        
   114    -11.837707  3 O  s                 33     -9.555859  1 C  dyy        
   170      9.338103  4 O  s                  4     -8.704206  1 C  s          

 Vector  350  Occ=0.000000D+00  E= 3.056332D+01
              MO Center= -5.6D-02, -1.3D-01,  1.6D+00, r^2= 1.2D+00
   Bfn.  Coefficient  Atom+Function         Bfn.  Coefficient  Atom+Function  
  ----- ------------  ---------------      ----- ------------  ---------------
    57     32.118655  2 C  s                 59    -21.524436  2 C  s          
    56     15.793493  2 C  s                 68     13.119639  2 C  py         
    86     10.238229  2 C  dxy               67      7.631120  2 C  px         
    65     -6.296475  2 C  py                 2      6.208733  1 C  s          
   277     -5.265363  6 H  s                302     -5.277576  7 H  s          


   alpha - beta orbital overlaps 
   ----------------------------- 


   alpha      1      2      3      4      5      6      7      8      9     10
    beta      1      2      3      4      5      6      7      8      9     10
 overlap   1.000  1.000  1.000  1.000  1.000  0.990  0.990  0.994  0.999  0.997


   alpha     11     12     13     14     15     16     17     18     19     20
    beta     11     12     13     14     15     16     20     17     18     19
 overlap   0.994  0.997  0.985  0.957  0.893  0.857  0.910  0.976  0.915  0.946


   alpha     21     22     23     24     25     26     27     28     29     30
    beta     21     22     23     24     25     26     27     28     29     30
 overlap   1.000  1.000  0.999  0.999  0.999  0.983  0.982  0.754  0.755  0.999


   alpha     31     32     33     34     35     36     37     38     39     40
    beta     31     32     33     34     35     36     37     39     38     40
 overlap   0.995  0.993  0.974  0.973  0.997  0.996  0.999  0.954  0.956  0.997


   alpha     41     42     43     44     45     46     47     48     49     50
    beta     41     42     43     44     45     46     47     48     49     50
 overlap   0.998  0.998  0.999  0.997  0.992  0.996  0.995  0.996  0.983  0.981


   alpha     51     52     53     54     55     56     57     58     59     60
    beta     51     52     53     54     55     56     57     58     59     61
 overlap   0.999  0.998  0.992  0.984  0.990  1.000  0.997  0.990  0.992  0.995


   alpha     61     62     63     64     65     66     67     68     69     70
    beta     60     62     63     64     65     66     67     68     69     70
 overlap   1.000  0.999  0.997  0.733  0.734  0.992  0.989  0.995  0.998  0.997


   alpha     71     72     73     74     75     76     77     78     79     80
    beta     71     72     73     74     75     76     77     78     79     80
 overlap   1.000  0.998  0.947  0.949  1.000  0.999  1.000  0.995  0.995  0.998


   alpha     81     82     83     84     85     86     87     88     89     90
    beta     81     82     83     85     84     88     87     86     89     90
 overlap   0.997  0.997  0.999  0.852  0.849  0.790  0.894  0.743  0.994  0.999


   alpha     91     92     93     94     95     96     97     98     99    100
    beta     91     92     93     94     95     96     97     98     99    101
 overlap   0.998  0.992  0.994  0.999  0.996  0.996  1.000  0.998  0.997  0.758


   alpha    101    102    103    104    105    106    107    108    109    110
    beta    100    102    103    104    105    106    107    108    109    110
 overlap   0.774  0.985  0.996  0.998  0.999  1.000  1.000  0.999  1.000  0.997


   alpha    111    112    113    114    115    116    117    118    119    120
    beta    111    112    114    113    115    116    117    118    119    120
 overlap   0.999  0.997  0.920  0.921  1.000  0.990  0.990  0.987  0.998  0.987


   alpha    121    122    123    124    125    126    127    128    129    130
    beta    121    122    123    124    125    126    127    128    129    130
 overlap   0.969  0.965  0.999  0.992  0.996  1.000  0.999  1.000  0.999  0.999


   alpha    131    132    133    134    135    136    137    138    139    140
    beta    131    132    133    134    135    137    136    138    139    140
 overlap   0.999  1.000  1.000  0.999  0.999  0.993  0.997  0.996  0.992  0.999


   alpha    141    142    143    144    145    146    147    148    149    150
    beta    141    142    143    144    145    146    147    148    149    150
 overlap   0.999  0.999  0.999  1.000  1.000  0.997  0.999  0.997  0.993  0.999


   alpha    151    152    153    154    155    156    157    158    159    160
    beta    151    152    153    154    155    156    157    158    159    160
 overlap   0.993  0.998  1.000  0.992  0.995  0.995  1.000  0.997  0.996  0.997


   alpha    161    162    163    164    165    166    167    168    169    170
    beta    161    162    163    164    165    166    167    168    169    170
 overlap   0.998  0.996  0.994  0.977  0.973  0.998  0.971  0.969  0.984  0.989


   alpha    171    172    173    174    175    176    177    178    179    180
    beta    171    172    173    175    174    176    177    178    179    180
 overlap   0.992  0.985  0.876  0.880  0.810  0.994  0.993  0.997  0.997  0.994


   alpha    181    182    183    184    185    186    187    188    189    190
    beta    181    182    183    184    185    186    187    188    189    190
 overlap   0.998  0.995  0.999  0.997  0.994  0.997  0.994  0.999  0.997  0.999


   alpha    191    192    193    194    195    196    197    198    199    200
    beta    191    192    193    194    195    196    197    198    199    200
 overlap   0.997  0.998  0.997  0.999  0.995  0.996  0.995  0.993  0.974  0.974


   alpha    201    202    203    204    205    206    207    208    209    210
    beta    201    202    203    204    205    206    207    208    209    210
 overlap   0.998  0.998  0.999  0.994  0.994  1.000  0.999  0.998  0.999  0.999


   alpha    211    212    213    214    215    216    217    218    219    220
    beta    211    212    213    214    215    216    217    218    219    220
 overlap   1.000  0.999  0.999  0.993  0.996  0.991  1.000  0.995  0.998  0.997


   alpha    221    222    223    224    225    226    227    228    229    230
    beta    221    222    223    224    225    226    227    229    228    230
 overlap   0.999  0.997  1.000  0.999  0.998  0.998  1.000  0.999  1.000  0.999


   alpha    231    232    233    234    235    236    237    238    239    240
    beta    231    232    233    234    235    236    237    238    239    240
 overlap   1.000  1.000  0.976  0.995  0.972  0.994  0.994  0.999  0.999  1.000


   alpha    241    242    243    244    245    246    247    248    249    250
    beta    241    242    243    244    245    246    247    248    249    251
 overlap   0.999  1.000  1.000  0.998  0.999  1.000  1.000  1.000  1.000  0.997


   alpha    251    252    253    254    255    256    257    258    259    260
    beta    250    252    253    254    255    256    257    258    259    260
 overlap   0.997  1.000  1.000  1.000  1.000  0.997  0.997  1.000  1.000  0.990


   alpha    261    262    263    264    265    266    267    268    269    270
    beta    261    262    263    264    265    266    267    268    269    270
 overlap   0.990  1.000  0.999  0.999  1.000  1.000  0.999  0.999  0.995  0.916


   alpha    271    272    273    274    275    276    277    278    279    280
    beta    271    272    273    275    274    276    277    278    279    280
 overlap   0.899  0.992  0.999  0.979  0.998  0.998  0.995  0.993  0.999  0.998


   alpha    281    282    283    284    285    286    287    288    289    290
    beta    281    283    282    284    285    286    287    289    288    290
 overlap   0.999  0.999  0.887  0.887  0.998  0.998  0.987  0.884  0.872  0.982


   alpha    291    292    293    294    295    296    297    298    299    300
    beta    291    292    294    293    295    296    297    298    299    300
 overlap   0.992  0.919  0.903  0.992  0.980  0.976  0.982  0.878  0.983  0.846


   alpha    301    302    303    304    305    306    307    308    309    310
    beta    301    302    303    304    305    306    307    308    309    310
 overlap   0.841  0.940  0.999  0.995  0.992  0.994  0.976  0.950  0.969  0.994


   alpha    311    312    313    314    315    316    317    318    319    320
    beta    311    312    313    314    315    316    317    318    319    320
 overlap   0.989  0.997  0.978  0.975  0.995  0.992  0.769  0.762  0.990  0.989


   alpha    321    322    323    324    325    326    327    328    329    330
    beta    321    322    323    324    325    326    327    328    329    330
 overlap   0.992  0.998  0.999  1.000  1.000  1.000  1.000  1.000  1.000  1.000


   alpha    331    332    333    334    335    336    337    338    339    340
    beta    331    332    333    334    335    336    337    338    339    340
 overlap   1.000  1.000  1.000  1.000  1.000  1.000  0.938  0.938  0.999  0.999


   alpha    341    342    343    344    345    346    347    348    349    350
    beta    341    342    343    344    345    346    347    348    349    350
 overlap   1.000  1.000  0.979  0.979  1.000  1.000  1.000  1.000  1.000  1.000


     --------------------------
     Expectation value of S2:  
     --------------------------
      <S2> =      0.7530 (Exact =     0.7500)


 center of mass
 --------------
 x =   0.27959937 y =   0.53636172 z =   1.17500359

 moments of inertia (a.u.)
 ------------------
         514.017612785662         -96.441034296251         -67.342170480946
         -96.441034296251         421.481274150942         -83.575948989044
         -67.342170480946         -83.575948989044         226.433221502098

     Multipole analysis of the density
     ---------------------------------

     L   x y z        total         alpha         beta         nuclear
     -   - - -        -----         -----         ----         -------
     0   0 0 0     -0.000000    -20.000000    -19.000000     39.000000

     1   1 0 0     -0.282003     -5.367135     -5.677754     10.762887
     1   0 1 0     -0.439544    -10.295730    -10.568521     20.424707
     1   0 0 1      0.611278    -24.355263    -24.026128     48.992670

     2   2 0 0    -21.199306    -31.569598    -29.933627     40.303919
     2   1 1 0     -0.910177    -29.245020    -27.351855     55.686698
     2   1 0 1     -1.166966    -24.302795    -22.886046     46.021875
     2   0 2 0    -22.023408    -60.952710    -57.559291     96.488593
     2   0 1 1     -1.269128    -34.451023    -31.988654     65.170548
     2   0 0 2    -23.067529   -137.321509   -131.453219    245.707199


 Task  times  cpu:      428.3s     wall:      445.2s


                                NWChem Input Module
                                -------------------


 Summary of allocated global arrays
-----------------------------------
  No active global arrays


MA_summarize_allocated_blocks: starting scan ...
heap block 'gridpts', handle 106, address 0x10d53480:
	type of elements:		double precision
	number of elements:		33554432
	address of client space:	0x10d53500
	index for client space:		10695161
	total number of bytes:		268435592
MA_summarize_allocated_blocks: scan completed: 1 heap block, 0 stack blocks
MA usage statistics:

	allocation statistics:
					      heap	     stack
					      ----	     -----
	current number of blocks	         1	         0
	maximum number of blocks	        21	        53
	current total bytes		 268435592	         0
	maximum total bytes		 268982736	  39612552
	maximum total K-bytes		    268983	     39613
	maximum total M-bytes		       269	        40


                                     CITATION
                                     --------
                Please cite the following reference when publishing
                           results obtained with NWChem:

          E. Apra, E. J. Bylaska, W. A. de Jong, N. Govind, K. Kowalski,
       T. P. Straatsma, M. Valiev, H. J. J. van Dam, Y. Alexeev, J. Anchell,
       V. Anisimov, F. W. Aquino, R. Atta-Fynn, J. Autschbach, N. P. Bauman,
     J. C. Becca, D. E. Bernholdt, K. Bhaskaran-Nair, S. Bogatko, P. Borowski,
         J. Boschen, J. Brabec, A. Bruner, E. Cauet, Y. Chen, G. N. Chuev,
      C. J. Cramer, J. Daily, M. J. O. Deegan, T. H. Dunning Jr., M. Dupuis,
   K. G. Dyall, G. I. Fann, S. A. Fischer, A. Fonari, H. Fruchtl, L. Gagliardi,
      J. Garza, N. Gawande, S. Ghosh, K. Glaesemann, A. W. Gotz, J. Hammond,
       V. Helms, E. D. Hermes, K. Hirao, S. Hirata, M. Jacquelin, L. Jensen,
   B. G. Johnson, H. Jonsson, R. A. Kendall, M. Klemm, R. Kobayashi, V. Konkov,
      S. Krishnamoorthy, M. Krishnan, Z. Lin, R. D. Lins, R. J. Littlefield,
      A. J. Logsdail, K. Lopata, W. Ma, A. V. Marenich, J. Martin del Campo,
   D. Mejia-Rodriguez, J. E. Moore, J. M. Mullin, T. Nakajima, D. R. Nascimento,
    J. A. Nichols, P. J. Nichols, J. Nieplocha, A. Otero-de-la-Roza, B. Palmer,
    A. Panyala, T. Pirojsirikul, B. Peng, R. Peverati, J. Pittner, L. Pollack,
   R. M. Richard, P. Sadayappan, G. C. Schatz, W. A. Shelton, D. W. Silverstein,
   D. M. A. Smith, T. A. Soares, D. Song, M. Swart, H. L. Taylor, G. S. Thomas,
            V. Tipparaju, D. G. Truhlar, K. Tsemekhman, T. Van Voorhis,
      A. Vazquez-Mayagoitia, P. Verma, O. Villa, A. Vishnu, K. D. Vogiatzis,
        D. Wang, J. H. Weare, M. J. Williamson, T. L. Windus, K. Wolinski,
        A. T. Wong, Q. Wu, C. Yang, Q. Yu, M. Zacharias, Z. Zhang, Y. Zhao,
                                and R. J. Harrison
                        "NWChem: Past, present, and future
                         J. Chem. Phys. 152, 184102 (2020)
                               doi:10.1063/5.0004997

                                      AUTHORS
                                      -------
  E. Apra, E. J. Bylaska, N. Govind, K. Kowalski, M. Valiev, D. Mejia-Rodriguez,
       A. Kunitsa, N. P. Bauman, A. Panyala, W. A. de Jong, T. P. Straatsma,
   H. J. J. van Dam, D. Wang, T. L. Windus, J. Hammond, J. Autschbach, A. Woods,
    K. Bhaskaran-Nair, J. Brabec, K. Lopata, S. A. Fischer, S. Krishnamoorthy,
     M. Jacquelin, W. Ma, M. Klemm, O. Villa, Y. Chen, V. Anisimov, F. Aquino,
     S. Hirata, M. T. Hackler, E. Hermes, L. Jensen, J. E. Moore, J. C. Becca,
      V. Konjkov, T. Risthaus, M. Malagoli, A. Marenich, A. Otero-de-la-Roza,
        J. Mullin, P. Nichols, R. Peverati, J. Pittner, Y. Zhao, P.-D. Fan,
        A. Fonari, M. J. Williamson, R. J. Harrison, J. R. Rehr, M. Dupuis,
     D. Silverstein, D. M. A. Smith, J. Nieplocha, V. Tipparaju, M. Krishnan,
     B. E. Van Kuiken, A. Vazquez-Mayagoitia, M. Swart, Q. Wu, T. Van Voorhis,
     A. A. Auer, M. Nooijen, L. D. Crosby, E. Brown, G. Cisneros, G. I. Fann,
   H. Fruchtl, J. Garza, K. Hirao, R. A. Kendall, J. A. Nichols, K. Tsemekhman,
    K. Wolinski, J. Anchell, D. E. Bernholdt, P. Borowski, T. Clark, D. Clerc,
   H. Dachsel, M. J. O. Deegan, K. Dyall, D. Elwood, E. Glendening, M. Gutowski,
   A. C. Hess, J. Jaffe, B. G. Johnson, J. Ju, R. Kobayashi, R. Kutteh, Z. Lin,
   R. Littlefield, X. Long, B. Meng, T. Nakajima, S. Niu, L. Pollack, M. Rosing,
   K. Glaesemann, G. Sandrone, M. Stave, H. Taylor, G. Thomas, J. H. van Lenthe,
                               A. T. Wong, Z. Zhang.

 Total times  cpu:      428.5s     wall:      445.5s
