 argument  1 = 0e/mol.nwi
                                         
                                         


             Northwest Computational Chemistry Package (NWChem) 7.2.2
             --------------------------------------------------------


                    Environmental Molecular Sciences Laboratory
                       Pacific Northwest National Laboratory
                                Richland, WA 99352

                              Copyright (c) 1994-2022
                       Pacific Northwest National Laboratory
                            Battelle Memorial Institute

             NWChem is an open-source computational chemistry package
                        distributed under the terms of the
                      Educational Community License (ECL) 2.0
             A copy of the license is included with this distribution
                              in the LICENSE.TXT file

                                  ACKNOWLEDGMENT
                                  --------------

            This software and its documentation were developed at the
            EMSL at Pacific Northwest National Laboratory, a multiprogram
            national laboratory, operated for the U.S. Department of Energy
            by Battelle under Contract Number DE-AC05-76RL01830. Support
            for this work was provided by the Department of Energy Office
            of Biological and Environmental Research, Office of Basic
            Energy Sciences, and the Office of Advanced Scientific Computing.


           Job information
           ---------------

    hostname        = r272.ib.bridges2.psc.edu
    program         = nwchem
    date            = Tue Oct  1 15:35:19 2024

    compiled        = Mon_Mar_18_17:03:37_2024
    source          = /ocean/projects/pscstaff/mmadrid/nwchem-7.2.2
    nwchem branch   = 7.2.2
    nwchem revision = 74936fb9
    ga revision     = 5.8.0
    use scalapack   = F
    input           = 0e/mol.nwi
    prefix          = dft.
    data base       = .//dft.db
    status          = startup
    nproc           =       15
    time left       =     -1s



           Memory information
           ------------------

    heap     =   67108864 doubles =    512.0 Mbytes
    stack    =   67108861 doubles =    512.0 Mbytes
    global   =  134217728 doubles =   1024.0 Mbytes (distinct from heap & stack)
    total    =  268435453 doubles =   2048.0 Mbytes
    verify   = yes
    hardfail = no 


           Directory information
           ---------------------

  0 permanent = ./
  0 scratch   = /jet/home/hmt47/nwchem_scratch/




                                NWChem Input Module
                                -------------------


  library name resolved from: environment
  library file name is: </opt/packages/nwchem/nwchem7.2.2/share/nwchem/libraries/>
  


 Summary of "ao basis" -> "" (cartesian)
 ------------------------------------------------------------------------------
       Tag                 Description            Shells   Functions and Types
 ---------------- ------------------------------  ------  ---------------------
 *                        aug-cc-pVTZ                 on all atoms 


  pbe96 is a nonlocal functional; adding pw91lda local functional. 

 Scaling coordinates for geometry "geometry" by  1.889725989
 (inverse scale =  0.529177249)



                             Geometry "geometry" -> ""
                             -------------------------

 Output coordinates in angstroms (scale by  1.889725989 to convert to a.u.)

  No.       Tag          Charge          X              Y              Z
 ---- ---------------- ---------- -------------- -------------- --------------
    1 P                   15.0000     0.00016271    -0.00062972    -0.03371994
    2 O                    8.0000    -0.00147621     1.52022332    -0.55910011
    3 O                    8.0000     1.31267574    -0.75474270    -0.57897002
    4 O                    8.0000     0.00482597    -0.01336791     1.57534523
    5 O                    8.0000    -1.31526221    -0.75473398    -0.57191515

      Atomic Mass 
      ----------- 

      P                 30.973760
      O                 15.994910


 Effective nuclear repulsion energy (a.u.)     235.2016964855

            Nuclear Dipole moment (a.u.) 
            ----------------------------
        X                 Y               Z
 ---------------- ---------------- ----------------
     0.0161514313    -0.0574778301    -2.9912841170


            XYZ format geometry
            -------------------
     5
 geometry
 P                     0.00016271    -0.00062972    -0.03371994
 O                    -0.00147621     1.52022332    -0.55910011
 O                     1.31267574    -0.75474270    -0.57897002
 O                     0.00482597    -0.01336791     1.57534523
 O                    -1.31526221    -0.75473398    -0.57191515

 ==============================================================================
                                internuclear distances
 ------------------------------------------------------------------------------
       center one      |      center two      | atomic units |  angstroms
 ------------------------------------------------------------------------------
    2 O                |   1 P                |     3.04065  |     1.60904
    3 O                |   1 P                |     3.04045  |     1.60894
    4 O                |   1 P                |     3.04080  |     1.60912
    5 O                |   1 P                |     3.04045  |     1.60893
 ------------------------------------------------------------------------------
                         number of included internuclear distances:          4
 ==============================================================================



 ==============================================================================
                                 internuclear angles
 ------------------------------------------------------------------------------
        center 1       |       center 2       |       center 3       |  degrees
 ------------------------------------------------------------------------------
    2 O                |   1 P                |   3 O                |   109.46
    2 O                |   1 P                |   4 O                |   109.51
    2 O                |   1 P                |   5 O                |   109.45
    3 O                |   1 P                |   4 O                |   109.44
    3 O                |   1 P                |   5 O                |   109.51
    4 O                |   1 P                |   5 O                |   109.46
 ------------------------------------------------------------------------------
                            number of included internuclear angles:          6
 ==============================================================================




                                 NWChem DFT Module
                                 -----------------


                      Basis "ao basis" -> "ao basis" (cartesian)
                      -----
  P (Phosphorous)
  ---------------
            Exponent  Coefficients 
       -------------- ---------------------------------------------------------
  1 S  3.12400000E+05  0.000058
  1 S  4.68000000E+04  0.000448
  1 S  1.06500000E+04  0.002349
  1 S  3.01800000E+03  0.009783
  1 S  9.86800000E+02  0.034147
  1 S  3.57400000E+02  0.100204
  1 S  1.39600000E+02  0.234372
  1 S  5.76300000E+01  0.382434
  1 S  2.46000000E+01  0.318088
  1 S  1.01200000E+01  0.070779
  1 S  4.28300000E+00 -0.001818
  1 S  1.80500000E+00  0.002162
  1 S  2.78200000E-01  0.000432

  2 S  3.12400000E+05 -0.000016
  2 S  4.68000000E+04 -0.000122
  2 S  1.06500000E+04 -0.000640
  2 S  3.01800000E+03 -0.002674
  2 S  9.86800000E+02 -0.009498
  2 S  3.57400000E+02 -0.028935
  2 S  1.39600000E+02 -0.074512
  2 S  5.76300000E+01 -0.149938
  2 S  2.46000000E+01 -0.189467
  2 S  1.01200000E+01  0.036327
  2 S  4.28300000E+00  0.528816
  2 S  1.80500000E+00  0.519115
  2 S  2.78200000E-01 -0.009257

  3 S  3.12400000E+05  0.000004
  3 S  4.68000000E+04  0.000033
  3 S  1.06500000E+04  0.000176
  3 S  3.01800000E+03  0.000734
  3 S  9.86800000E+02  0.002618
  3 S  3.57400000E+02  0.007979
  3 S  1.39600000E+02  0.020794
  3 S  5.76300000E+01  0.042445
  3 S  2.46000000E+01  0.056344
  3 S  1.01200000E+01 -0.012736
  3 S  4.28300000E+00 -0.196495
  3 S  1.80500000E+00 -0.353555
  3 S  2.78200000E-01  0.700912

  4 S  6.15800000E-01  1.000000

  5 S  1.05500000E-01  1.000000

  6 S  4.09000000E-02  1.000000

  7 P  5.04900000E+02  0.002337
  7 P  1.19400000E+02  0.018541
  7 P  3.79600000E+01  0.084969
  7 P  1.39500000E+01  0.244615
  7 P  5.45700000E+00  0.422766
  7 P  2.17700000E+00  0.368439
  7 P  2.87700000E-01 -0.003790

  8 P  5.04900000E+02 -0.000555
  8 P  1.19400000E+02 -0.004459
  8 P  3.79600000E+01 -0.020635
  8 P  1.39500000E+01 -0.061769
  8 P  5.45700000E+00 -0.108924
  8 P  2.17700000E+00 -0.105599
  8 P  2.87700000E-01  0.576981

  9 P  8.01000000E-01  1.000000

 10 P  9.71400000E-02  1.000000

 11 P  3.07000000E-02  1.000000

 12 D  2.16000000E-01  1.000000

 13 D  6.52000000E-01  1.000000

 14 D  7.75000000E-02  1.000000

 15 F  4.52000000E-01  1.000000

 16 F  1.65000000E-01  1.000000

  O (Oxygen)
  ----------
            Exponent  Coefficients 
       -------------- ---------------------------------------------------------
  1 S  1.53300000E+04  0.000508
  1 S  2.29900000E+03  0.003929
  1 S  5.22400000E+02  0.020243
  1 S  1.47300000E+02  0.079181
  1 S  4.75500000E+01  0.230687
  1 S  1.67600000E+01  0.433118
  1 S  6.20700000E+00  0.350260
  1 S  6.88200000E-01 -0.008154

  2 S  1.53300000E+04 -0.000115
  2 S  2.29900000E+03 -0.000895
  2 S  5.22400000E+02 -0.004636
  2 S  1.47300000E+02 -0.018724
  2 S  4.75500000E+01 -0.058463
  2 S  1.67600000E+01 -0.136463
  2 S  6.20700000E+00 -0.175740
  2 S  6.88200000E-01  0.603418

  3 S  1.75200000E+00  1.000000

  4 S  2.38400000E-01  1.000000

  5 S  7.37600000E-02  1.000000

  6 P  3.44600000E+01  0.015928
  6 P  7.74900000E+00  0.099740
  6 P  2.28000000E+00  0.310492

  7 P  7.15600000E-01  1.000000

  8 P  2.14000000E-01  1.000000

  9 P  5.97400000E-02  1.000000

 10 D  2.31400000E+00  1.000000

 11 D  6.45000000E-01  1.000000

 12 D  2.14000000E-01  1.000000

 13 F  1.42800000E+00  1.000000

 14 F  5.00000000E-01  1.000000



 Summary of "ao basis" -> "ao basis" (cartesian)
 ------------------------------------------------------------------------------
       Tag                 Description            Shells   Functions and Types
 ---------------- ------------------------------  ------  ---------------------
 P                        aug-cc-pVTZ               16       59   6s5p3d2f
 O                        aug-cc-pVTZ               14       55   5s4p3d2f




 Summary of "ao basis" -> "ao basis" (cartesian)
 ------------------------------------------------------------------------------
       Tag                 Description            Shells   Functions and Types
 ---------------- ------------------------------  ------  ---------------------
 P                        aug-cc-pVTZ               16       59   6s5p3d2f
 O                        aug-cc-pVTZ               14       55   5s4p3d2f


  Caching 1-el integrals 

            General Information
            -------------------
          SCF calculation type: DFT
          Wavefunction type:  spin polarized.
          No. of atoms     :     5
          No. of electrons :    47
           Alpha electrons :    24
            Beta electrons :    23
          Charge           :     0
          Spin multiplicity:     2
          Use of symmetry is: off; symmetry adaption is: off
          Maximum number of iterations: 100
          AO basis - number of functions:   279
                     number of shells:    72
          Convergence on energy requested:  1.00D-06
          Convergence on density requested:  1.00D-05
          Convergence on gradient requested:  5.00D-04

              XC Information
              --------------
          PerdewBurkeErnzerhof Exchange Functional  1.000          
            Perdew 1991 LDA Correlation Functional  1.000 local    
           PerdewBurkeErnz. Correlation Functional  1.000 non-local

             Grid Information
             ----------------
          Grid used for XC integration:  medium    
          Radial quadrature: Mura-Knowles        
          Angular quadrature: Lebedev. 
          Tag              B.-S. Rad. Rad. Pts. Rad. Cut. Ang. Pts.
          ---              ---------- --------- --------- ---------
          P                   1.00       88          10.0       590
          O                   0.60       49          11.0       434
          Grid pruning is: on 
          Number of quadrature shells:   284
          Spatial weights used:  Erf1

          Convergence Information
          -----------------------
          Convergence aids based upon iterative change in 
          total energy or number of iterations. 
          Levelshifting, if invoked, occurs when the 
          HOMO/LUMO gap drops below (HL_TOL):  1.00D-02
          DIIS, if invoked, will attempt to extrapolate 
          using up to (NFOCK): 10 stored Fock matrices.

                    Damping(40%)  Levelshifting(0.0)       DIIS
                  --------------- ------------------- ---------------
          dE  on:    start            0.00D+00            start   
          dE off:  100 iters          0.00D+00          100 iters 


      Screening Tolerance Information
      -------------------------------
          Density screening/tol_rho:  1.00D-10
          AO Gaussian exp screening on grid/accAOfunc:  14
          CD Gaussian exp screening on grid/accCDfunc:  20
          XC Gaussian exp screening on grid/accXCfunc:  20
          Schwarz screening/accCoul:  1.00D-08


 Forcing the number of linearly dependent vectors to be  0

      Superposition of Atomic Density Guess
      -------------------------------------

 Sum of atomic energies:        -639.78286225
   Time after variat. SCF:      0.5
   Time prior to 1st pass:      0.5

 Grid_pts file          = /jet/home/hmt47/nwchem_scratch//dft.gridpts.00
 Record size in doubles =  12289        No. of grid_pts per rec  =   3070
 Max. records in memory =      5        Max. recs in file   =  67550051


           Memory utilization after 1st SCF pass: 
           Heap Space remaining (MW):       33.36            33363912
          Stack Space remaining (MW):       67.11            67106500

   convergence    iter        energy       DeltaE   RMS-Dens  Diis-err    time
 ---------------- ----- ----------------- --------- --------- ---------  ------
 d=40,ls=0.0,diis     1   -642.3979421151 -8.78D+02  5.76D-03  8.89D+00     1.6
                                                     5.65D-03  8.18D+00
 d=40,ls=0.0,diis     2   -642.0150620719  3.83D-01  3.90D-03  1.49D+00     4.8
                                                     4.07D-03  1.37D+00
 d=40,ls=0.0,diis     3   -641.5126975614  5.02D-01  2.23D-03  8.10D-01     9.5
                                                     2.50D-03  7.50D-01
 d=40,ls=0.0,diis     4   -641.6357663315 -1.23D-01  1.78D-03  3.50D-01    13.0
                                                     2.10D-03  3.31D-01
 d=40,ls=0.0,diis     5   -641.6713955710 -3.56D-02  1.04D-03  2.24D-01    17.2
                                                     1.80D-03  2.11D-01
 d=40,ls=0.0,diis     6   -641.7467674829 -7.54D-02  1.30D-03  7.62D-02    20.4
                                                     1.80D-03  7.83D-02
  Resetting Diis
 d=40,ls=0.0,diis     7   -641.7473196112 -5.52D-04  1.67D-03  8.14D-02    29.9
                                                     1.54D-03  9.01D-02
 d=40,ls=0.0,diis     8   -641.7985163952 -5.12D-02  1.32D-03  1.27D-02    33.0
                                                     1.63D-03  1.35D-02
 d=40,ls=0.0,diis     9   -641.6819210528  1.17D-01  7.83D-04  2.40D-01    36.2
                                                     9.16D-04  2.42D-01
 d=40,ls=0.0,diis    10   -641.7500460059 -6.81D-02  3.06D-04  1.16D-01    39.7
                                                     4.61D-04  1.29D-01
 d=40,ls=0.0,diis    11   -641.7855852642 -3.55D-02  2.57D-04  5.74D-02    42.9
                                                     2.70D-04  6.66D-02
 d=40,ls=0.0,diis    12   -641.8034868324 -1.79D-02  1.66D-04  3.07D-02    46.0
                                                     1.66D-04  3.61D-02
 d=40,ls=0.0,diis    13   -641.8115409800 -8.05D-03  1.95D-04  1.88D-02    49.2
                                                     1.96D-04  2.24D-02
 d=40,ls=0.0,diis    14   -641.8162418833 -4.70D-03  2.07D-04  1.14D-02    52.6
                                                     1.34D-04  1.34D-02
 d=40,ls=0.0,diis    15   -641.8197268835 -3.49D-03  1.49D-04  5.90D-03    55.8
                                                     8.58D-05  6.77D-03
 d=40,ls=0.0,diis    16   -641.8218531780 -2.13D-03  1.91D-04  2.61D-03    58.9
                                                     1.18D-04  2.88D-03
 d=40,ls=0.0,diis    17   -641.8230930939 -1.24D-03  1.68D-04  6.26D-04    62.1
                                                     1.17D-04  6.19D-04
 d=40,ls=0.0,diis    18   -641.8235290420 -4.36D-04  1.55D-04  1.11D-04    66.7
                                                     1.33D-04  8.13D-05
 d=40,ls=0.0,diis    19   -641.8237058378 -1.77D-04  7.46D-05  5.09D-05    69.8
                                                     7.05D-05  4.44D-05
 d=40,ls=0.0,diis    20   -641.8238316017 -1.26D-04  6.58D-05  4.58D-05    73.0
                                                     6.40D-05  4.71D-05
 d=40,ls=0.0,diis    21   -641.8239160683 -8.45D-05  7.96D-05  4.54D-05    76.1
                                                     7.16D-05  5.13D-05
 d=40,ls=0.0,diis    22   -641.8239918843 -7.58D-05  1.66D-04  3.26D-05    80.6
                                                     1.56D-04  4.75D-05
 d=40,ls=0.0,diis    23   -641.8240547560 -6.29D-05  1.08D-04  3.59D-05    83.8
                                                     1.17D-04  6.31D-05
 d=40,ls=0.0,diis    24   -641.8241674554 -1.13D-04  4.19D-04  2.58D-05    86.9
                                                     4.35D-04  3.87D-05
 d=40,ls=0.0,diis    25   -641.8236532817  5.14D-04  1.80D-04  2.22D-04    89.9
                                                     1.82D-04  2.61D-04
 d=40,ls=0.0,diis    26   -641.8239608718 -3.08D-04  6.98D-05  3.08D-04   250.9
                                                     7.14D-05  3.45D-04
 d=40,ls=0.0,diis    27   -641.8243328879 -3.72D-04  8.25D-05  3.88D-05   255.4
                                                     9.03D-05  4.24D-05
 d=40,ls=0.0,diis    28   -641.8244259492 -9.31D-05  3.37D-05  3.95D-05   258.6
                                                     3.71D-05  4.34D-05
 d=40,ls=0.0,diis    29   -641.8244946950 -6.87D-05  6.65D-06  2.19D-05   261.7
                                                     9.82D-06  2.40D-05
 d=40,ls=0.0,diis    30   -641.8245323686 -3.77D-05  4.83D-06  4.09D-06   264.9
                                                     6.06D-06  4.32D-06
 d=40,ls=0.0,diis    31   -641.8245458605 -1.35D-05  2.49D-06  4.39D-07   268.0
                                                     2.50D-06  4.10D-07
 d=40,ls=0.0,diis    32   -641.8245508350 -4.97D-06  3.22D-06  4.08D-08   271.2
                                                     3.88D-06  3.10D-08
 d=40,ls=0.0,diis    33   -641.8245527527 -1.92D-06  2.79D-06  1.94D-08   274.4
                                                     2.84D-06  1.91D-08
 d=40,ls=0.0,diis    34   -641.8245535665 -8.14D-07  1.83D-06  4.52D-09   277.5
                                                     1.98D-06  7.43D-09


         Total DFT energy =     -641.824553566488
      One electron energy =    -1351.995167838499
           Coulomb energy =      531.857232779902
    Exchange-Corr. energy =      -56.888314993357
 Nuclear repulsion energy =      235.201696485467

 Numeric. integr. density =       46.999999389317

     Total iterative time =    277.0s



                    DFT Final Alpha Molecular Orbital Analysis
                    ------------------------------------------

 Vector    1  Occ=1.000000D+00  E=-7.649971D+01
              MO Center=  1.6D-04, -6.3D-04, -3.4D-02, r^2= 4.1D-03
   Bfn.  Coefficient  Atom+Function         Bfn.  Coefficient  Atom+Function  
  ----- ------------  ---------------      ----- ------------  ---------------
     1      1.004369  1 P  s                  3      0.038020  1 P  s          
     2      0.028743  1 P  s          

 Vector    2  Occ=1.000000D+00  E=-1.889009D+01
              MO Center= -1.5D-03,  1.5D+00, -5.6D-01, r^2= 1.5D-02
   Bfn.  Coefficient  Atom+Function         Bfn.  Coefficient  Atom+Function  
  ----- ------------  ---------------      ----- ------------  ---------------
    60      0.977481  2 O  s                 62      0.063592  2 O  s          
     5     -0.054577  1 P  s                 64     -0.048805  2 O  s          
    63     -0.035168  2 O  s                 72     -0.028547  2 O  py         
    92      0.025528  2 O  dyy               52      0.025333  1 P  fxxz       

 Vector    3  Occ=1.000000D+00  E=-1.887095D+01
              MO Center=  2.2D-02, -8.0D-02,  1.4D+00, r^2= 6.0D-01
   Bfn.  Coefficient  Atom+Function         Bfn.  Coefficient  Atom+Function  
  ----- ------------  ---------------      ----- ------------  ---------------
   170      0.932873  4 O  s                115      0.223323  3 O  s          
   225      0.192508  5 O  s                  5     -0.074710  1 P  s          
   172      0.060174  4 O  s                174     -0.052184  4 O  s          
   183     -0.036116  4 O  pz               204      0.028591  4 O  dzz        
    63      0.028078  2 O  s                119     -0.026655  3 O  s          

 Vector    4  Occ=1.000000D+00  E=-1.887092D+01
              MO Center=  6.4D-01, -6.9D-01, -3.9D-01, r^2= 1.6D+00
   Bfn.  Coefficient  Atom+Function         Bfn.  Coefficient  Atom+Function  
  ----- ------------  ---------------      ----- ------------  ---------------
   115      0.817712  3 O  s                225      0.452630  5 O  s          
   170     -0.287440  4 O  s                  5     -0.054445  1 P  s          
   117      0.052603  3 O  s                119     -0.043016  3 O  s          
   173      0.037268  4 O  s                229     -0.029885  5 O  s          
    57      0.029594  1 P  fyyz             227      0.029440  5 O  s          

 Vector    5  Occ=1.000000D+00  E=-1.887091D+01
              MO Center= -6.6D-01, -7.5D-01, -5.7D-01, r^2= 1.3D+00
   Bfn.  Coefficient  Atom+Function         Bfn.  Coefficient  Atom+Function  
  ----- ------------  ---------------      ----- ------------  ---------------
   225      0.845109  5 O  s                115     -0.487458  3 O  s          
   170     -0.057178  4 O  s                227      0.053835  5 O  s          
   228     -0.042594  5 O  s                118      0.034512  3 O  s          
   229     -0.034550  5 O  s                117     -0.030703  3 O  s          
    54     -0.026811  1 P  fxyz              16     -0.026167  1 P  px         

 Vector    6  Occ=1.000000D+00  E=-6.481782D+00
              MO Center=  1.6D-04, -4.7D-04, -3.4D-02, r^2= 9.1D-02
   Bfn.  Coefficient  Atom+Function         Bfn.  Coefficient  Atom+Function  
  ----- ------------  ---------------      ----- ------------  ---------------
     2      0.901996  1 P  s                  4      0.105300  1 P  s          
     3     -0.053066  1 P  s          

 Vector    7  Occ=1.000000D+00  E=-4.698563D+00
              MO Center=  1.6D-04, -6.3D-04, -3.4D-02, r^2= 8.3D-02
   Bfn.  Coefficient  Atom+Function         Bfn.  Coefficient  Atom+Function  
  ----- ------------  ---------------      ----- ------------  ---------------
     8      1.012318  1 P  py                 9     -0.334648  1 P  pz         
    11      0.237546  1 P  py                48     -0.099860  1 P  fyzz       
    41     -0.099179  1 P  fxxy              46     -0.098423  1 P  fyyy       
    12     -0.078537  1 P  pz                42      0.034785  1 P  fxxz       
    72      0.034712  2 O  py                49      0.032425  1 P  fzzz       

 Vector    8  Occ=1.000000D+00  E=-4.698482D+00
              MO Center=  1.8D-04, -6.6D-04, -3.4D-02, r^2= 8.3D-02
   Bfn.  Coefficient  Atom+Function         Bfn.  Coefficient  Atom+Function  
  ----- ------------  ---------------      ----- ------------  ---------------
     9      1.008429  1 P  pz                 8      0.334303  1 P  py         
    12      0.237100  1 P  pz                47     -0.100481  1 P  fyyz       
    42     -0.099289  1 P  fxxz              49     -0.098329  1 P  fzzz       
     7     -0.093293  1 P  px                11      0.078590  1 P  py         
   183      0.034490  4 O  pz                46     -0.033285  1 P  fyyy       

 Vector    9  Occ=1.000000D+00  E=-4.698477D+00
              MO Center=  1.5D-04, -7.2D-04, -3.4D-02, r^2= 8.3D-02
   Bfn.  Coefficient  Atom+Function         Bfn.  Coefficient  Atom+Function  
  ----- ------------  ---------------      ----- ------------  ---------------
     7      1.062369  1 P  px                10      0.249824  1 P  px         
    45     -0.105194  1 P  fxzz              40     -0.103989  1 P  fxxx       
    43     -0.104109  1 P  fxyy               9      0.091815  1 P  pz         

 Vector   10  Occ=1.000000D+00  E=-1.037911D+00
              MO Center=  4.6D-05,  2.7D-01, -1.3D-01, r^2= 2.0D+00
   Bfn.  Coefficient  Atom+Function         Bfn.  Coefficient  Atom+Function  
  ----- ------------  ---------------      ----- ------------  ---------------
    61      0.286629  2 O  s                  3      0.273809  1 P  s          
   116      0.185581  3 O  s                171      0.185261  4 O  s          
   226      0.185492  5 O  s                 63      0.150868  2 O  s          
   118      0.090418  3 O  s                173      0.090240  4 O  s          
   228      0.090367  5 O  s                 62      0.084379  2 O  s          

 Vector   11  Occ=1.000000D+00  E=-9.685293D-01
              MO Center=  4.9D-04,  6.2D-01, -2.5D-01, r^2= 2.1D+00
   Bfn.  Coefficient  Atom+Function         Bfn.  Coefficient  Atom+Function  
  ----- ------------  ---------------      ----- ------------  ---------------
    61      0.405423  2 O  s                 63      0.254669  2 O  s          
   116     -0.177737  3 O  s                171     -0.177446  4 O  s          
   226     -0.177129  5 O  s                 17     -0.144275  1 P  py         
    11      0.135064  1 P  py                62      0.114482  2 O  s          
   118     -0.109395  3 O  s                173     -0.109270  4 O  s          

 Vector   12  Occ=1.000000D+00  E=-9.485298D-01
              MO Center=  7.6D-02, -6.4D-01, -4.9D-01, r^2= 1.9D+00
   Bfn.  Coefficient  Atom+Function         Bfn.  Coefficient  Atom+Function  
  ----- ------------  ---------------      ----- ------------  ---------------
   116      0.369238  3 O  s                226     -0.344748  5 O  s          
   118      0.233659  3 O  s                228     -0.218175  5 O  s          
    16     -0.156122  1 P  px                10      0.149515  1 P  px         
   117      0.104218  3 O  s                227     -0.097305  5 O  s          
   119      0.088913  3 O  s                 55      0.083931  1 P  fxzz       

 Vector   13  Occ=1.000000D+00  E=-9.484343D-01
              MO Center= -7.6D-02, -2.2D-01,  7.3D-01, r^2= 1.9D+00
   Bfn.  Coefficient  Atom+Function         Bfn.  Coefficient  Atom+Function  
  ----- ------------  ---------------      ----- ------------  ---------------
   171      0.412292  4 O  s                173      0.260944  4 O  s          
   226     -0.227554  5 O  s                116     -0.184583  3 O  s          
    18     -0.147558  1 P  pz               228     -0.143995  5 O  s          
    12      0.141268  1 P  pz               118     -0.116787  3 O  s          
   172      0.116367  4 O  s                174      0.099276  4 O  s          

 Vector   14  Occ=1.000000D+00  E=-5.580890D-01
              MO Center=  6.6D-05,  1.0D-01, -7.0D-02, r^2= 3.0D+00
   Bfn.  Coefficient  Atom+Function         Bfn.  Coefficient  Atom+Function  
  ----- ------------  ---------------      ----- ------------  ---------------
     3      0.415613  1 P  s                 61     -0.166324  2 O  s          
   116     -0.158416  3 O  s                171     -0.158399  4 O  s          
   226     -0.158430  5 O  s                 63     -0.143402  2 O  s          
    66     -0.132277  2 O  py               118     -0.129380  3 O  s          
   173     -0.129388  4 O  s                228     -0.129397  5 O  s          

 Vector   15  Occ=1.000000D+00  E=-4.711173D-01
              MO Center=  3.6D-04,  4.0D-01, -1.7D-01, r^2= 2.8D+00
   Bfn.  Coefficient  Atom+Function         Bfn.  Coefficient  Atom+Function  
  ----- ------------  ---------------      ----- ------------  ---------------
    11      0.226565  1 P  py                69     -0.210188  2 O  py         
    66     -0.208352  2 O  py                63     -0.205654  2 O  s          
    61     -0.133833  2 O  s                 14      0.126243  1 P  py         
   179      0.107656  4 O  py               176      0.105016  4 O  py         
   120      0.097781  3 O  px               230     -0.098021  5 O  px         

 Vector   16  Occ=1.000000D+00  E=-4.635327D-01
              MO Center= -2.6D-01, -1.4D-01, -2.8D-01, r^2= 2.8D+00
   Bfn.  Coefficient  Atom+Function         Bfn.  Coefficient  Atom+Function  
  ----- ------------  ---------------      ----- ------------  ---------------
    10      0.220750  1 P  px               228      0.191297  5 O  s          
    68      0.158437  2 O  px                65      0.153461  2 O  px         
   234     -0.143080  5 O  py               231     -0.141978  5 O  py         
   230     -0.139614  5 O  px               233     -0.138918  5 O  px         
   226      0.136313  5 O  s                 13      0.123132  1 P  px         

 Vector   17  Occ=1.000000D+00  E=-4.635184D-01
              MO Center=  2.6D-01,  4.0D-02,  2.4D-01, r^2= 2.8D+00
   Bfn.  Coefficient  Atom+Function         Bfn.  Coefficient  Atom+Function  
  ----- ------------  ---------------      ----- ------------  ---------------
    12      0.208542  1 P  pz               177     -0.185409  4 O  pz         
   180     -0.185119  4 O  pz               173     -0.179855  4 O  s          
   118      0.151244  3 O  s                 70      0.149934  2 O  pz         
    67      0.145234  2 O  pz               120      0.141396  3 O  px         
   123      0.140989  3 O  px               171     -0.128130  4 O  s          

 Vector   18  Occ=1.000000D+00  E=-3.992673D-01
              MO Center= -2.0D-01,  3.9D-01, -3.8D-01, r^2= 2.7D+00
   Bfn.  Coefficient  Atom+Function         Bfn.  Coefficient  Atom+Function  
  ----- ------------  ---------------      ----- ------------  ---------------
    68      0.254532  2 O  px                65      0.247387  2 O  px         
    71      0.150721  2 O  px               230      0.149579  5 O  px         
   233      0.144497  5 O  px                29      0.127726  1 P  dxy        
    23      0.124894  1 P  dxy              122     -0.124740  3 O  pz         
   125     -0.124597  3 O  pz               232      0.124716  5 O  pz         

 Vector   19  Occ=1.000000D+00  E=-3.992064D-01
              MO Center=  2.0D-01,  5.2D-01, -2.9D-03, r^2= 2.7D+00
   Bfn.  Coefficient  Atom+Function         Bfn.  Coefficient  Atom+Function  
  ----- ------------  ---------------      ----- ------------  ---------------
    70      0.240991  2 O  pz                67      0.234231  2 O  pz         
   120     -0.148375  3 O  px               123     -0.144532  3 O  px         
   179      0.144512  4 O  py                73      0.142717  2 O  pz         
   176      0.141306  4 O  py               177      0.126568  4 O  pz         
   180      0.119710  4 O  pz                68     -0.105805  2 O  px         

 Vector   20  Occ=1.000000D+00  E=-3.862252D-01
              MO Center=  1.5D-03, -1.2D-03, -3.4D-02, r^2= 3.2D+00
   Bfn.  Coefficient  Atom+Function         Bfn.  Coefficient  Atom+Function  
  ----- ------------  ---------------      ----- ------------  ---------------
    66      0.196951  2 O  py                69      0.184815  2 O  py         
   121      0.181426  3 O  py               124      0.182263  3 O  py         
   179      0.181177  4 O  py               231      0.180992  5 O  py         
   234      0.181835  5 O  py               176      0.177693  4 O  py         
    17      0.172485  1 P  py               182      0.104757  4 O  py         

 Vector   21  Occ=1.000000D+00  E=-3.691516D-01
              MO Center= -1.7D-02, -2.1D-01,  4.7D-02, r^2= 3.0D+00
   Bfn.  Coefficient  Atom+Function         Bfn.  Coefficient  Atom+Function  
  ----- ------------  ---------------      ----- ------------  ---------------
   231      0.209614  5 O  py               234      0.209472  5 O  py         
   122      0.154893  3 O  pz               125      0.155411  3 O  pz         
   179     -0.148236  4 O  py               176     -0.144194  4 O  py         
    70      0.129687  2 O  pz                67      0.125940  2 O  pz         
   237      0.122909  5 O  py               177      0.112975  4 O  pz         

 Vector   22  Occ=1.000000D+00  E=-3.691054D-01
              MO Center=  1.6D-02, -2.2D-01,  3.3D-02, r^2= 3.0D+00
   Bfn.  Coefficient  Atom+Function         Bfn.  Coefficient  Atom+Function  
  ----- ------------  ---------------      ----- ------------  ---------------
   121      0.210383  3 O  py               124      0.210205  3 O  py         
   175     -0.155866  4 O  px               178     -0.156065  4 O  px         
   235      0.155250  5 O  pz               232      0.152679  5 O  pz         
    68     -0.137690  2 O  px                65     -0.133708  2 O  px         
   127      0.123453  3 O  py                24     -0.119297  1 P  dxz        

 Vector   23  Occ=1.000000D+00  E=-3.460434D-01
              MO Center=  4.4D-02, -2.1D-01, -2.8D-02, r^2= 3.1D+00
   Bfn.  Coefficient  Atom+Function         Bfn.  Coefficient  Atom+Function  
  ----- ------------  ---------------      ----- ------------  ---------------
   178      0.181624  4 O  px               175      0.180681  4 O  px         
   124      0.161561  3 O  py                68     -0.159592  2 O  px         
   230      0.157629  5 O  px               233      0.155654  5 O  px         
    65     -0.153714  2 O  px               121      0.153629  3 O  py         
   120      0.146407  3 O  px               123      0.143047  3 O  px         

 Vector   24  Occ=1.000000D+00  E=-3.459993D-01
              MO Center= -4.3D-02, -1.7D-01,  8.8D-02, r^2= 3.1D+00
   Bfn.  Coefficient  Atom+Function         Bfn.  Coefficient  Atom+Function  
  ----- ------------  ---------------      ----- ------------  ---------------
   179      0.213905  4 O  py               176      0.208174  4 O  py         
   235      0.201295  5 O  pz               232      0.200290  5 O  pz         
   125      0.180017  3 O  pz               122      0.179089  3 O  pz         
    70     -0.150668  2 O  pz               182      0.147582  4 O  py         
    67     -0.145121  2 O  pz               238      0.129545  5 O  pz         

 Vector   25  Occ=0.000000D+00  E=-3.104538D-01
              MO Center= -1.9D-04, -4.9D-01,  1.4D-01, r^2= 2.9D+00
   Bfn.  Coefficient  Atom+Function         Bfn.  Coefficient  Atom+Function  
  ----- ------------  ---------------      ----- ------------  ---------------
   178      0.238899  4 O  px               175      0.235931  4 O  px         
   125     -0.194794  3 O  pz               235      0.195744  5 O  pz         
   122     -0.192353  3 O  pz               232      0.193307  5 O  pz         
   181      0.170316  4 O  px               128     -0.138901  3 O  pz         
   238      0.139566  5 O  pz               123     -0.119403  3 O  px         

 Vector   26  Occ=0.000000D+00  E=-4.514419D-02
              MO Center= -3.4D-05,  7.8D-02, -6.0D-02, r^2= 6.5D+00
   Bfn.  Coefficient  Atom+Function         Bfn.  Coefficient  Atom+Function  
  ----- ------------  ---------------      ----- ------------  ---------------
     6      2.088334  1 P  s                  5      1.272796  1 P  s          
    64     -0.695040  2 O  s                119     -0.673430  3 O  s          
   174     -0.673454  4 O  s                229     -0.673448  5 O  s          
     3      0.362909  1 P  s                186      0.216444  4 O  pz         
    75      0.214387  2 O  py                63     -0.178043  2 O  s          

 Vector   27  Occ=0.000000D+00  E= 1.184054D-02
              MO Center=  2.0D-04, -1.8D-01,  2.7D-02, r^2= 1.2D+01
   Bfn.  Coefficient  Atom+Function         Bfn.  Coefficient  Atom+Function  
  ----- ------------  ---------------      ----- ------------  ---------------
    17      1.488797  1 P  py                20      1.393071  1 P  py         
    64     -1.189380  2 O  s                 18     -0.500433  1 P  pz         
   119      0.484215  3 O  s                229      0.485886  5 O  s          
   174      0.470974  4 O  s                 21     -0.467402  1 P  pz         
    58     -0.344168  1 P  fyzz              56     -0.332174  1 P  fyyy       

 Vector   28  Occ=0.000000D+00  E= 1.456919D-02
              MO Center=  8.6D-03,  5.8D-02, -2.9D-02, r^2= 1.2D+01
   Bfn.  Coefficient  Atom+Function         Bfn.  Coefficient  Atom+Function  
  ----- ------------  ---------------      ----- ------------  ---------------
    18      1.480607  1 P  pz                21      1.450522  1 P  pz         
   174     -1.241260  4 O  s                119      0.797897  3 O  s          
    17      0.494468  1 P  py                20      0.485639  1 P  py         
   229      0.430397  5 O  s                 57     -0.350524  1 P  fyyz       
    52     -0.332735  1 P  fxxz              59     -0.321945  1 P  fzzz       

 Vector   29  Occ=0.000000D+00  E= 1.460060D-02
              MO Center= -8.1D-03,  4.3D-02, -7.3D-02, r^2= 1.2D+01
   Bfn.  Coefficient  Atom+Function         Bfn.  Coefficient  Atom+Function  
  ----- ------------  ---------------      ----- ------------  ---------------
    16      1.562148  1 P  px                19      1.531368  1 P  px         
   229      1.178124  5 O  s                119     -0.967989  3 O  s          
    55     -0.358859  1 P  fxzz              53     -0.349940  1 P  fxyy       
    50     -0.343958  1 P  fxxx             184     -0.282157  4 O  px         
   228      0.256324  5 O  s                 18      0.250584  1 P  pz         

 Vector   30  Occ=0.000000D+00  E= 3.495966D-02
              MO Center= -7.8D-04,  3.9D-01, -1.6D-01, r^2= 8.8D+00
   Bfn.  Coefficient  Atom+Function         Bfn.  Coefficient  Atom+Function  
  ----- ------------  ---------------      ----- ------------  ---------------
     6      5.519744  1 P  s                  5      2.950795  1 P  s          
    64     -1.172950  2 O  s                 34     -1.092540  1 P  dxx        
    39     -1.073801  1 P  dzz               37     -0.944110  1 P  dyy        
    63     -0.930659  2 O  s                118     -0.884420  3 O  s          
   173     -0.884449  4 O  s                228     -0.884499  5 O  s          

 Vector   31  Occ=0.000000D+00  E= 5.192242D-02
              MO Center=  1.3D-03, -6.9D-01,  2.1D-01, r^2= 7.2D+00
   Bfn.  Coefficient  Atom+Function         Bfn.  Coefficient  Atom+Function  
  ----- ------------  ---------------      ----- ------------  ---------------
    64      1.953826  2 O  s                 20     -1.172917  1 P  py         
     6      0.900397  1 P  s                229     -0.842875  5 O  s          
    17     -0.827471  1 P  py               119     -0.818774  3 O  s          
    37     -0.755158  1 P  dyy              174     -0.707971  4 O  s          
    38      0.632178  1 P  dyz                5      0.401918  1 P  s          

 Vector   32  Occ=0.000000D+00  E= 5.326341D-02
              MO Center= -1.2D-01,  5.3D-02, -3.9D-01, r^2= 7.1D+00
   Bfn.  Coefficient  Atom+Function         Bfn.  Coefficient  Atom+Function  
  ----- ------------  ---------------      ----- ------------  ---------------
   174      1.846439  4 O  s                119     -1.165360  3 O  s          
    21     -1.108306  1 P  pz                18     -0.636945  1 P  pz         
    39     -0.635117  1 P  dzz              229     -0.581422  5 O  s          
    34      0.474044  1 P  dxx               20     -0.327798  1 P  py         
    12      0.258986  1 P  pz                27     -0.249982  1 P  dzz        

 Vector   33  Occ=0.000000D+00  E= 5.336659D-02
              MO Center=  1.2D-01,  2.6D-01,  2.1D-01, r^2= 7.1D+00
   Bfn.  Coefficient  Atom+Function         Bfn.  Coefficient  Atom+Function  
  ----- ------------  ---------------      ----- ------------  ---------------
   229      1.728822  5 O  s                119     -1.418387  3 O  s          
    19      1.153981  1 P  px                35     -0.930378  1 P  dxy        
    36     -0.704109  1 P  dxz               16      0.663692  1 P  px         
    23     -0.363366  1 P  dxy              174     -0.349105  4 O  s          
    24     -0.271382  1 P  dxz               10     -0.270007  1 P  px         

 Vector   34  Occ=0.000000D+00  E= 8.092490D-02
              MO Center= -6.7D-04,  9.1D-01, -3.5D-01, r^2= 1.4D+01
   Bfn.  Coefficient  Atom+Function         Bfn.  Coefficient  Atom+Function  
  ----- ------------  ---------------      ----- ------------  ---------------
    17      9.841264  1 P  py                64     -6.397822  2 O  s          
    18     -3.380332  1 P  pz                75      2.870073  2 O  py         
    58     -2.735226  1 P  fyzz              51     -2.674056  1 P  fxxy       
    56     -2.620992  1 P  fyyy             119      2.070342  3 O  s          
   229      2.069640  5 O  s                174      2.052644  4 O  s          

 Vector   35  Occ=0.000000D+00  E= 8.182232D-02
              MO Center= -6.7D-02, -8.8D-02,  7.2D-01, r^2= 1.4D+01
   Bfn.  Coefficient  Atom+Function         Bfn.  Coefficient  Atom+Function  
  ----- ------------  ---------------      ----- ------------  ---------------
    18      9.616254  1 P  pz               174     -5.881328  4 O  s          
    17      3.300682  1 P  py               229      3.191283  5 O  s          
   186      2.739463  4 O  pz                57     -2.721390  1 P  fyyz       
   119      2.677866  3 O  s                 52     -2.616855  1 P  fxxz       
    59     -2.533221  1 P  fzzz              39      1.251951  1 P  dzz        

 Vector   36  Occ=0.000000D+00  E= 8.182800D-02
              MO Center=  6.8D-02, -5.3D-01, -5.7D-01, r^2= 1.4D+01
   Bfn.  Coefficient  Atom+Function         Bfn.  Coefficient  Atom+Function  
  ----- ------------  ---------------      ----- ------------  ---------------
    16     10.167944  1 P  px               119     -5.236135  3 O  s          
   229      4.939375  5 O  s                 55     -2.820225  1 P  fxzz       
    50     -2.713567  1 P  fxxx              53     -2.717795  1 P  fxyy       
   129      1.942576  3 O  px                36     -1.849308  1 P  dxz        
   239      1.843495  5 O  px                35     -1.496393  1 P  dxy        

 Vector   37  Occ=0.000000D+00  E= 8.651541D-02
              MO Center=  9.1D-03, -8.9D-02,  8.8D-03, r^2= 1.4D+01
   Bfn.  Coefficient  Atom+Function         Bfn.  Coefficient  Atom+Function  
  ----- ------------  ---------------      ----- ------------  ---------------
    16      2.705705  1 P  px                35     -1.942848  1 P  dxy        
   229      1.696632  5 O  s                 36      1.493432  1 P  dxz        
   131     -1.187972  3 O  pz               119     -1.125450  3 O  s          
    74      1.050675  2 O  px               184     -1.029651  4 O  px         
   241      0.936105  5 O  pz                18      0.874886  1 P  pz         

 Vector   38  Occ=0.000000D+00  E= 8.652716D-02
              MO Center= -8.8D-03, -9.6D-02, -1.4D-02, r^2= 1.4D+01
   Bfn.  Coefficient  Atom+Function         Bfn.  Coefficient  Atom+Function  
  ----- ------------  ---------------      ----- ------------  ---------------
    18      2.543866  1 P  pz                38     -2.066802  1 P  dyz        
   174     -1.615612  4 O  s                119      1.302667  3 O  s          
   129     -1.091598  3 O  px               185      1.038561  4 O  py         
    76      0.994668  2 O  pz                16     -0.926958  1 P  px         
    17      0.873700  1 P  py                37     -0.761233  1 P  dyy        

 Vector   39  Occ=0.000000D+00  E= 1.105685D-01
              MO Center=  5.3D-04, -1.4D-02, -2.9D-02, r^2= 1.6D+01
   Bfn.  Coefficient  Atom+Function         Bfn.  Coefficient  Atom+Function  
  ----- ------------  ---------------      ----- ------------  ---------------
     5     21.483241  1 P  s                119     -5.421345  3 O  s          
   174     -5.418248  4 O  s                229     -5.420095  5 O  s          
    64     -5.344700  2 O  s                 34      4.538345  1 P  dxx        
    39      4.528976  1 P  dzz               37      4.475232  1 P  dyy        
     6     -4.248287  1 P  s                186      2.490019  4 O  pz         

 Vector   40  Occ=0.000000D+00  E= 1.581072D-01
              MO Center= -2.0D-02,  4.2D-01,  2.2D-01, r^2= 1.3D+01
   Bfn.  Coefficient  Atom+Function         Bfn.  Coefficient  Atom+Function  
  ----- ------------  ---------------      ----- ------------  ---------------
    76      1.828696  2 O  pz               185     -1.690223  4 O  py         
   240      0.696174  5 O  py               241     -0.645181  5 O  pz         
    75      0.628344  2 O  py               130      0.618989  3 O  py         
   131     -0.619877  3 O  pz                21     -0.374119  1 P  pz         
    58      0.262197  1 P  fyzz             182      0.226770  4 O  py         

 Vector   41  Occ=0.000000D+00  E= 1.581133D-01
              MO Center=  2.0D-02,  1.7D-01, -4.9D-01, r^2= 1.3D+01
   Bfn.  Coefficient  Atom+Function         Bfn.  Coefficient  Atom+Function  
  ----- ------------  ---------------      ----- ------------  ---------------
    74      1.933245  2 O  px               130     -1.376817  3 O  py         
   240      1.338947  5 O  py               131      0.483387  3 O  pz         
   241     -0.445222  5 O  pz                19     -0.394515  1 P  px         
   184     -0.384613  4 O  px               239     -0.383851  5 O  px         
   129     -0.380410  3 O  px                53     -0.321016  1 P  fxyy       

 Vector   42  Occ=0.000000D+00  E= 1.615114D-01
              MO Center=  4.1D-04, -5.0D-01,  1.4D-01, r^2= 1.3D+01
   Bfn.  Coefficient  Atom+Function         Bfn.  Coefficient  Atom+Function  
  ----- ------------  ---------------      ----- ------------  ---------------
   184      1.665114  4 O  px               131     -1.361683  3 O  pz         
   241      1.367054  5 O  pz               129     -0.839337  3 O  px         
   239     -0.831284  5 O  px               130     -0.468931  3 O  py         
   240      0.468635  5 O  py                55     -0.264143  1 P  fxzz       
   181     -0.227985  4 O  px               238     -0.186842  5 O  pz         

 Vector   43  Occ=0.000000D+00  E= 1.664636D-01
              MO Center= -1.4D-03,  1.3D-01, -8.2D-02, r^2= 1.7D+01
   Bfn.  Coefficient  Atom+Function         Bfn.  Coefficient  Atom+Function  
  ----- ------------  ---------------      ----- ------------  ---------------
    20      3.771097  1 P  py               185     -1.869097  4 O  py         
    37     -1.735713  1 P  dyy              130     -1.690623  3 O  py         
   240     -1.693397  5 O  py                17      1.452750  1 P  py         
     6      1.438683  1 P  s                 75     -1.413536  2 O  py         
    21     -1.325756  1 P  pz                38      1.146272  1 P  dyz        

 Vector   44  Occ=0.000000D+00  E= 1.678059D-01
              MO Center=  1.5D-02,  3.4D-02,  3.0D-02, r^2= 1.7D+01
   Bfn.  Coefficient  Atom+Function         Bfn.  Coefficient  Atom+Function  
  ----- ------------  ---------------      ----- ------------  ---------------
    19      3.973174  1 P  px               184     -2.099822  4 O  px         
    35      1.792230  1 P  dxy               74     -1.798815  2 O  px         
   129     -1.661842  3 O  px               239     -1.610576  5 O  px         
    36      1.470761  1 P  dxz               16      1.301504  1 P  px         
    54     -1.248291  1 P  fxyz             229      1.018379  5 O  s          

 Vector   45  Occ=0.000000D+00  E= 1.678171D-01
              MO Center= -1.3D-02, -1.2D-02, -1.0D-01, r^2= 1.7D+01
   Bfn.  Coefficient  Atom+Function         Bfn.  Coefficient  Atom+Function  
  ----- ------------  ---------------      ----- ------------  ---------------
    21      3.749076  1 P  pz               241     -1.901102  5 O  pz         
   131     -1.869913  3 O  pz                76     -1.696740  2 O  pz         
    20      1.317710  1 P  py               186     -1.299153  4 O  pz         
    39     -1.259764  1 P  dzz               18      1.226319  1 P  pz         
   174     -1.110129  4 O  s                 34      0.984773  1 P  dxx        

 Vector   46  Occ=0.000000D+00  E= 1.819783D-01
              MO Center=  3.6D-04, -3.0D-01,  7.0D-02, r^2= 1.5D+01
   Bfn.  Coefficient  Atom+Function         Bfn.  Coefficient  Atom+Function  
  ----- ------------  ---------------      ----- ------------  ---------------
     6     17.242938  1 P  s                  5     -9.102630  1 P  s          
    34     -9.085244  1 P  dxx               39     -9.074013  1 P  dzz        
    37     -9.008591  1 P  dyy              119      4.275337  3 O  s          
   174      4.273628  4 O  s                229      4.275826  5 O  s          
    64      4.133805  2 O  s                186     -2.243593  4 O  pz         

 Vector   47  Occ=0.000000D+00  E= 1.986054D-01
              MO Center= -4.4D-02,  8.1D-02, -2.2D-01, r^2= 1.0D+01
   Bfn.  Coefficient  Atom+Function         Bfn.  Coefficient  Atom+Function  
  ----- ------------  ---------------      ----- ------------  ---------------
    39      2.656084  1 P  dzz               34     -2.192722  1 P  dxx        
   186     -1.609029  4 O  pz               173     -1.573443  4 O  s          
    21      1.381967  1 P  pz                38     -1.159835  1 P  dyz        
    51      1.008254  1 P  fxxy             118      0.999801  3 O  s          
    18      0.889678  1 P  pz               129      0.841654  3 O  px         

 Vector   48  Occ=0.000000D+00  E= 1.986600D-01
              MO Center=  5.0D-02,  1.9D-01,  8.3D-02, r^2= 1.0D+01
   Bfn.  Coefficient  Atom+Function         Bfn.  Coefficient  Atom+Function  
  ----- ------------  ---------------      ----- ------------  ---------------
    35      4.080988  1 P  dxy               36      2.991936  1 P  dxz        
    54     -1.851709  1 P  fxyz              19     -1.498139  1 P  px         
   228     -1.500211  5 O  s                118      1.284658  3 O  s          
   239      1.261145  5 O  px               129      1.076527  3 O  px         
    16     -0.963456  1 P  px                23      0.715053  1 P  dxy        

 Vector   49  Occ=0.000000D+00  E= 1.990788D-01
              MO Center= -5.9D-03, -1.9D-01,  8.3D-03, r^2= 1.0D+01
   Bfn.  Coefficient  Atom+Function         Bfn.  Coefficient  Atom+Function  
  ----- ------------  ---------------      ----- ------------  ---------------
    38      2.703327  1 P  dyz               37     -2.208684  1 P  dyy        
    63      1.840663  2 O  s                 34      1.708801  1 P  dxx        
    75      1.656732  2 O  py                39      1.553886  1 P  dzz        
    20     -1.299991  1 P  py                17     -0.935136  1 P  py         
    52     -0.924003  1 P  fxxz              57      0.795905  1 P  fyyz       

 Vector   50  Occ=0.000000D+00  E= 2.422032D-01
              MO Center=  2.0D-03,  5.5D-01, -2.1D-01, r^2= 1.3D+01
   Bfn.  Coefficient  Atom+Function         Bfn.  Coefficient  Atom+Function  
  ----- ------------  ---------------      ----- ------------  ---------------
    64     15.024211  2 O  s                 17     -8.126072  1 P  py         
    75     -5.150715  2 O  py               174     -4.943548  4 O  s          
   119     -4.643262  3 O  s                229     -4.539338  5 O  s          
    37     -3.423004  1 P  dyy               38      3.438237  1 P  dyz        
    18      2.966003  1 P  pz               130     -2.716682  3 O  py         

 Vector   51  Occ=0.000000D+00  E= 2.440876D-01
              MO Center= -1.2D-01, -4.2D-01, -2.7D-01, r^2= 1.3D+01
   Bfn.  Coefficient  Atom+Function         Bfn.  Coefficient  Atom+Function  
  ----- ------------  ---------------      ----- ------------  ---------------
   229     13.007818  5 O  s                119    -10.793841  3 O  s          
    16      8.370815  1 P  px                35     -5.056462  1 P  dxy        
   239      4.500661  5 O  px               129      4.147949  3 O  px         
    36     -3.864175  1 P  dxz              184      2.448798  4 O  px         
    74      2.347441  2 O  px                19     -2.170487  1 P  px         

 Vector   52  Occ=0.000000D+00  E= 2.441282D-01
              MO Center=  1.2D-01, -1.9D-01,  4.0D-01, r^2= 1.3D+01
   Bfn.  Coefficient  Atom+Function         Bfn.  Coefficient  Atom+Function  
  ----- ------------  ---------------      ----- ------------  ---------------
   174     13.663399  4 O  s                119     -8.810949  3 O  s          
    18     -7.853120  1 P  pz               229     -5.086161  5 O  s          
   186     -4.955673  4 O  pz                39     -3.441784  1 P  dzz        
   131     -2.867617  3 O  pz                17     -2.849167  1 P  py         
    34      2.683832  1 P  dxx              241     -2.623639  5 O  pz         

 Vector   53  Occ=0.000000D+00  E= 2.612943D-01
              MO Center=  4.1D-03,  2.7D-02, -2.5D-02, r^2= 7.1D+00
   Bfn.  Coefficient  Atom+Function         Bfn.  Coefficient  Atom+Function  
  ----- ------------  ---------------      ----- ------------  ---------------
    38      4.807822  1 P  dyz               37      1.687830  1 P  dyy        
    34     -1.591244  1 P  dxx               76     -1.225250  2 O  pz         
   185     -1.204724  4 O  py                26      1.025335  1 P  dyz        
   182     -0.888033  4 O  py                73     -0.839669  2 O  pz         
   130      0.820709  3 O  py                18      0.738150  1 P  pz         

 Vector   54  Occ=0.000000D+00  E= 2.614705D-01
              MO Center= -3.6D-03,  1.6D-02, -5.8D-02, r^2= 7.1D+00
   Bfn.  Coefficient  Atom+Function         Bfn.  Coefficient  Atom+Function  
  ----- ------------  ---------------      ----- ------------  ---------------
    36      4.639117  1 P  dxz               35     -3.526166  1 P  dxy        
    74      1.293353  2 O  px                24      1.011940  1 P  dxz        
   184     -1.007717  4 O  px               131     -0.951787  3 O  pz         
    71      0.890018  2 O  px               181     -0.879611  4 O  px         
   241      0.858508  5 O  pz               240     -0.801922  5 O  py         

 Vector   55  Occ=0.000000D+00  E= 2.948447D-01
              MO Center= -2.8D-04,  5.3D-02, -5.2D-02, r^2= 1.5D+01
   Bfn.  Coefficient  Atom+Function         Bfn.  Coefficient  Atom+Function  
  ----- ------------  ---------------      ----- ------------  ---------------
     5     38.832350  1 P  s                 64    -17.590341  2 O  s          
   119    -17.196190  3 O  s                174    -17.191925  4 O  s          
   229    -17.200499  5 O  s                 34     13.864036  1 P  dxx        
    37     13.913921  1 P  dyy               39     13.864533  1 P  dzz        
     6     -6.975676  1 P  s                186      4.503089  4 O  pz         

 Vector   56  Occ=0.000000D+00  E= 3.237901D-01
              MO Center= -4.4D-03,  6.3D-01, -2.7D-01, r^2= 1.2D+01
   Bfn.  Coefficient  Atom+Function         Bfn.  Coefficient  Atom+Function  
  ----- ------------  ---------------      ----- ------------  ---------------
    17     29.758594  1 P  py                64    -15.684066  2 O  s          
    18     -9.713285  1 P  pz                58     -8.622148  1 P  fyzz       
    51     -8.546666  1 P  fxxy              56     -8.288286  1 P  fyyy       
   229      6.250020  5 O  s                119      6.133674  3 O  s          
   174      5.793866  4 O  s                 75      3.811162  2 O  py         

 Vector   57  Occ=0.000000D+00  E= 3.257452D-01
              MO Center=  1.2D-01, -2.2D-01,  5.8D-01, r^2= 1.2D+01
   Bfn.  Coefficient  Atom+Function         Bfn.  Coefficient  Atom+Function  
  ----- ------------  ---------------      ----- ------------  ---------------
    18     29.668122  1 P  pz               174    -15.488666  4 O  s          
    17      9.689352  1 P  py               119      9.166122  3 O  s          
    57     -8.689980  1 P  fyyz              52     -8.457779  1 P  fxxz       
    59     -8.239695  1 P  fzzz             229      6.032266  5 O  s          
   186      3.978033  4 O  pz                16     -3.584134  1 P  px         

 Vector   58  Occ=0.000000D+00  E= 3.258004D-01
              MO Center= -1.1D-01, -5.5D-01, -3.7D-01, r^2= 1.2D+01
   Bfn.  Coefficient  Atom+Function         Bfn.  Coefficient  Atom+Function  
  ----- ------------  ---------------      ----- ------------  ---------------
    16     31.222820  1 P  px               229     14.196042  5 O  s          
   119    -12.467952  3 O  s                 55     -9.025056  1 P  fxzz       
    50     -8.761474  1 P  fxxx              53     -8.745699  1 P  fxyy       
    35     -4.518888  1 P  dxy               18      3.442295  1 P  pz         
    36     -2.979625  1 P  dxz              239      2.849876  5 O  px         

 Vector   59  Occ=0.000000D+00  E= 3.754762D-01
              MO Center=  9.1D-04,  2.3D-03, -3.3D-02, r^2= 7.4D+00
   Bfn.  Coefficient  Atom+Function         Bfn.  Coefficient  Atom+Function  
  ----- ------------  ---------------      ----- ------------  ---------------
    36      5.275950  1 P  dxz               35     -3.787433  1 P  dxy        
    74      1.325494  2 O  px               184     -1.298309  4 O  px         
   131     -1.159833  3 O  pz                90     -1.109427  2 O  dxy        
   181     -1.106624  4 O  px                24      1.094413  1 P  dxz        
    71      1.092190  2 O  px               201      1.050981  4 O  dxz        

 Vector   60  Occ=0.000000D+00  E= 3.755392D-01
              MO Center= -5.0D-04,  9.5D-04, -3.6D-02, r^2= 7.4D+00
   Bfn.  Coefficient  Atom+Function         Bfn.  Coefficient  Atom+Function  
  ----- ------------  ---------------      ----- ------------  ---------------
    38      5.330794  1 P  dyz               34     -1.857318  1 P  dxx        
    37      1.852981  1 P  dyy              185     -1.311410  4 O  py         
    76     -1.254908  2 O  pz                26      1.111003  1 P  dyz        
   182     -1.105396  4 O  py               203      1.054919  4 O  dyz        
    73     -1.027002  2 O  pz               130      0.974751  3 O  py         

 Vector   61  Occ=0.000000D+00  E= 4.488699D-01
              MO Center=  1.1D-04, -1.5D-02, -2.9D-02, r^2= 9.3D+00
   Bfn.  Coefficient  Atom+Function         Bfn.  Coefficient  Atom+Function  
  ----- ------------  ---------------      ----- ------------  ---------------
     5     24.223945  1 P  s                 37    -15.187381  1 P  dyy        
    34    -14.933205  1 P  dxx               39    -14.959510  1 P  dzz        
     6     13.952034  1 P  s                118    -12.046692  3 O  s          
   173    -12.046061  4 O  s                228    -12.047428  5 O  s          
    63    -11.848433  2 O  s                 64     11.541856  2 O  s          

 Vector   62  Occ=0.000000D+00  E= 4.826634D-01
              MO Center= -2.2D-03, -2.5D-01,  3.7D-02, r^2= 5.8D+00
   Bfn.  Coefficient  Atom+Function         Bfn.  Coefficient  Atom+Function  
  ----- ------------  ---------------      ----- ------------  ---------------
    63      3.445091  2 O  s                 38      3.350618  1 P  dyz        
    52     -3.180555  1 P  fxxz              57      2.744385  1 P  fyyz       
    37     -2.572170  1 P  dyy               34      2.283380  1 P  dxx        
    39      2.006173  1 P  dzz               56     -1.757462  1 P  fyyy       
    26      1.354792  1 P  dyz               25     -1.317053  1 P  dyy        

 Vector   63  Occ=0.000000D+00  E= 4.834295D-01
              MO Center=  4.2D-02,  2.2D-01,  9.2D-02, r^2= 5.8D+00
   Bfn.  Coefficient  Atom+Function         Bfn.  Coefficient  Atom+Function  
  ----- ------------  ---------------      ----- ------------  ---------------
    54      6.492058  1 P  fxyz              35     -5.215535  1 P  dxy        
    36     -3.820398  1 P  dxz              228      2.617266  5 O  s          
   118     -2.326459  3 O  s                 23     -2.142684  1 P  dxy        
    24     -1.551302  1 P  dxz               53      1.231562  1 P  fxyy       
    50      1.172494  1 P  fxxx             181      1.153604  4 O  px         

 Vector   64  Occ=0.000000D+00  E= 4.834349D-01
              MO Center= -3.9D-02,  1.0D-01, -2.6D-01, r^2= 5.8D+00
   Bfn.  Coefficient  Atom+Function         Bfn.  Coefficient  Atom+Function  
  ----- ------------  ---------------      ----- ------------  ---------------
    51      3.459301  1 P  fxxy              39      3.420569  1 P  dzz        
   173     -2.821526  4 O  s                 34     -2.775199  1 P  dxx        
    57     -2.229289  1 P  fyyz              59      1.805701  1 P  fzzz       
   118      1.696490  3 O  s                 38     -1.434169  1 P  dyz        
    27      1.410402  1 P  dzz              228      1.218749  5 O  s          

 Vector   65  Occ=0.000000D+00  E= 5.389486D-01
              MO Center=  1.9D-02,  7.5D-02,  4.8D-02, r^2= 5.1D+00
   Bfn.  Coefficient  Atom+Function         Bfn.  Coefficient  Atom+Function  
  ----- ------------  ---------------      ----- ------------  ---------------
    53      3.218846  1 P  fxyy              54     -1.011419  1 P  fxyz       
    55     -0.818665  1 P  fxzz              90      0.776694  2 O  dxy        
    50     -0.625393  1 P  fxxx              74     -0.609961  2 O  px         
    91      0.560646  2 O  dxz               71     -0.553927  2 O  px         
   240     -0.419872  5 O  py               237     -0.410823  5 O  py         

 Vector   66  Occ=0.000000D+00  E= 5.390744D-01
              MO Center= -1.9D-02,  8.1D-03, -1.4D-01, r^2= 5.1D+00
   Bfn.  Coefficient  Atom+Function         Bfn.  Coefficient  Atom+Function  
  ----- ------------  ---------------      ----- ------------  ---------------
    58      2.813373  1 P  fyzz              57     -1.341814  1 P  fyyz       
    52      0.880570  1 P  fxxz              56     -0.799210  1 P  fyyy       
    51     -0.587351  1 P  fxxy              76      0.577807  2 O  pz         
   182     -0.539901  4 O  py               185     -0.530816  4 O  py         
    73      0.525490  2 O  pz                94      0.521592  2 O  dzz        

 Vector   67  Occ=0.000000D+00  E= 5.431998D-01
              MO Center= -4.0D-04,  4.1D-02, -4.8D-02, r^2= 5.0D+00
   Bfn.  Coefficient  Atom+Function         Bfn.  Coefficient  Atom+Function  
  ----- ------------  ---------------      ----- ------------  ---------------
    55      2.802332  1 P  fxzz              54      1.935488  1 P  fxyz       
    50     -1.066874  1 P  fxxx             200      0.663141  4 O  dxy        
   181     -0.582314  4 O  px               184     -0.478719  4 O  px         
   238     -0.479406  5 O  pz               128      0.474462  3 O  pz         
   201      0.435614  4 O  dxz               53      0.402998  1 P  fxyy       

 Vector   68  Occ=0.000000D+00  E= 5.722856D-01
              MO Center= -2.7D-02, -9.6D-02, -7.8D-02, r^2= 5.8D+00
   Bfn.  Coefficient  Atom+Function         Bfn.  Coefficient  Atom+Function  
  ----- ------------  ---------------      ----- ------------  ---------------
    24      1.536978  1 P  dxz               23     -1.237091  1 P  dxy        
    90     -0.784748  2 O  dxy              200      0.745265  4 O  dxy        
    71     -0.634394  2 O  px               257     -0.562005  5 O  dyy        
    91     -0.545241  2 O  dxz              147      0.500250  3 O  dyy        
   181      0.454503  4 O  px               201      0.449981  4 O  dxz        

 Vector   69  Occ=0.000000D+00  E= 5.723549D-01
              MO Center=  2.8D-02, -4.8D-02,  5.9D-02, r^2= 5.8D+00
   Bfn.  Coefficient  Atom+Function         Bfn.  Coefficient  Atom+Function  
  ----- ------------  ---------------      ----- ------------  ---------------
    26      1.640511  1 P  dyz              203      0.613002  4 O  dyz        
    73      0.602164  2 O  pz                25      0.575076  1 P  dyy        
    22     -0.520985  1 P  dxx               94     -0.519076  2 O  dzz        
   182      0.509757  4 O  py               148     -0.479595  3 O  dyz        
   202     -0.479524  4 O  dyy              255      0.423526  5 O  dxy        

 Vector   70  Occ=0.000000D+00  E= 5.820467D-01
              MO Center=  3.3D-03,  7.5D-01,  3.3D-01, r^2= 8.0D+00
   Bfn.  Coefficient  Atom+Function         Bfn.  Coefficient  Atom+Function  
  ----- ------------  ---------------      ----- ------------  ---------------
    76      1.301247  2 O  pz                58      1.253976  1 P  fyzz       
   185     -1.208440  4 O  py               203      1.201982  4 O  dyz        
    93     -1.156675  2 O  dyz               73     -0.922339  2 O  pz         
   182      0.809060  4 O  py               146      0.514048  3 O  dxz        
   256     -0.512805  5 O  dxz               52      0.495742  1 P  fxxz       

 Vector   71  Occ=0.000000D+00  E= 5.820603D-01
              MO Center= -3.5D-03,  3.7D-01, -7.8D-01, r^2= 8.0D+00
   Bfn.  Coefficient  Atom+Function         Bfn.  Coefficient  Atom+Function  
  ----- ------------  ---------------      ----- ------------  ---------------
    74     -1.375353  2 O  px                53      1.294969  1 P  fxyy       
    90      1.127863  2 O  dxy              130      1.001096  3 O  py         
   240     -1.002299  5 O  py                71      0.974057  2 O  px         
    91     -0.785956  2 O  dxz              255     -0.625647  5 O  dxy        
   145     -0.621869  3 O  dxy              127     -0.603356  3 O  py         

 Vector   72  Occ=0.000000D+00  E= 5.927982D-01
              MO Center=  7.1D-05, -7.9D-01,  2.4D-01, r^2= 8.0D+00
   Bfn.  Coefficient  Atom+Function         Bfn.  Coefficient  Atom+Function  
  ----- ------------  ---------------      ----- ------------  ---------------
    55      1.365116  1 P  fxzz             201      1.210595  4 O  dxz        
   184     -1.188442  4 O  px               131      0.971164  3 O  pz         
   241     -0.975223  5 O  pz                54      0.936100  1 P  fxyz       
   148      0.769842  3 O  dyz              258     -0.771108  5 O  dyz        
   181      0.760490  4 O  px               128     -0.622888  3 O  pz         

 Vector   73  Occ=0.000000D+00  E= 6.187502D-01
              MO Center= -9.6D-04,  8.4D-01, -3.2D-01, r^2= 6.9D+00
   Bfn.  Coefficient  Atom+Function         Bfn.  Coefficient  Atom+Function  
  ----- ------------  ---------------      ----- ------------  ---------------
     5     22.729970  1 P  s                 51     -8.573269  1 P  fxxy       
   118     -6.245812  3 O  s                173     -6.245131  4 O  s          
   228     -6.245636  5 O  s                  6     -5.756584  1 P  s          
    63     -5.635642  2 O  s                 17      5.063781  1 P  py         
   183      3.935714  4 O  pz                59      3.571694  1 P  fzzz       

 Vector   74  Occ=0.000000D+00  E= 6.212107D-01
              MO Center= -7.0D-04,  1.3D-01, -7.2D-02, r^2= 7.7D+00
   Bfn.  Coefficient  Atom+Function         Bfn.  Coefficient  Atom+Function  
  ----- ------------  ---------------      ----- ------------  ---------------
     5     21.825773  1 P  s                 17     -6.268384  1 P  py         
    63     -5.953122  2 O  s                  6     -5.651688  1 P  s          
   118     -5.603117  3 O  s                173     -5.601214  4 O  s          
   228     -5.602780  5 O  s                 52     -4.941120  1 P  fxxz       
    56      4.662419  1 P  fyyy              57     -4.460795  1 P  fyyz       

 Vector   75  Occ=0.000000D+00  E= 6.225057D-01
              MO Center=  2.2D-04, -5.5D-01,  1.5D-01, r^2= 9.7D+00
   Bfn.  Coefficient  Atom+Function         Bfn.  Coefficient  Atom+Function  
  ----- ------------  ---------------      ----- ------------  ---------------
     5      9.776615  1 P  s                 64     -4.786125  2 O  s          
    63     -2.962908  2 O  s                 72      2.702167  2 O  py         
    52     -2.525101  1 P  fxxz               6     -2.355598  1 P  s          
   118     -2.327914  3 O  s                173     -2.326942  4 O  s          
   228     -2.327577  5 O  s                 20      2.057527  1 P  py         

 Vector   76  Occ=0.000000D+00  E= 6.249845D-01
              MO Center=  9.2D-03, -1.5D-01,  2.0D-02, r^2= 8.3D+00
   Bfn.  Coefficient  Atom+Function         Bfn.  Coefficient  Atom+Function  
  ----- ------------  ---------------      ----- ------------  ---------------
    16      6.980529  1 P  px                18      5.063642  1 P  pz         
    53     -3.049535  1 P  fxyy              55     -3.048161  1 P  fxzz       
    50     -3.016168  1 P  fxxx              57     -2.242792  1 P  fyyz       
    52     -2.200279  1 P  fxxz             229     -2.189079  5 O  s          
    59     -2.177401  1 P  fzzz              17      1.758527  1 P  py         

 Vector   77  Occ=0.000000D+00  E= 6.249956D-01
              MO Center= -9.1D-03, -1.5D-01,  1.4D-02, r^2= 8.3D+00
   Bfn.  Coefficient  Atom+Function         Bfn.  Coefficient  Atom+Function  
  ----- ------------  ---------------      ----- ------------  ---------------
    18      6.604927  1 P  pz                16     -5.355570  1 P  px         
    57     -2.920397  1 P  fyyz              52     -2.866013  1 P  fxxz       
    59     -2.838718  1 P  fzzz              53      2.337323  1 P  fxyy       
    55      2.336381  1 P  fxzz              50      2.312153  1 P  fxxx       
    17      2.271826  1 P  py               119     -2.033538  3 O  s          

 Vector   78  Occ=0.000000D+00  E= 6.265359D-01
              MO Center=  1.1D-01, -7.0D-02,  2.7D-01, r^2= 9.5D+00
   Bfn.  Coefficient  Atom+Function         Bfn.  Coefficient  Atom+Function  
  ----- ------------  ---------------      ----- ------------  ---------------
   174      5.357913  4 O  s                119     -3.567048  3 O  s          
    57     -3.525209  1 P  fyyz              52     -3.168528  1 P  fxxz       
    18      2.818344  1 P  pz                59     -2.755422  1 P  fzzz       
   229     -1.774473  5 O  s                183     -1.622136  4 O  pz         
    21     -1.420148  1 P  pz                58     -1.339134  1 P  fyzz       

 Vector   79  Occ=0.000000D+00  E= 6.265553D-01
              MO Center= -1.1D-01, -2.4D-01, -2.3D-01, r^2= 9.5D+00
   Bfn.  Coefficient  Atom+Function         Bfn.  Coefficient  Atom+Function  
  ----- ------------  ---------------      ----- ------------  ---------------
   229      5.153040  5 O  s                119     -4.122295  3 O  s          
    55      3.586536  1 P  fxzz              50      3.094973  1 P  fxxx       
    16     -2.954817  1 P  px                53      2.899643  1 P  fxyy       
    19      1.504236  1 P  px                54     -1.360880  1 P  fxyz       
   254     -1.274819  5 O  dxx              236      1.258505  5 O  px         

 Vector   80  Occ=0.000000D+00  E= 6.892022D-01
              MO Center= -4.1D-03, -1.0D-02, -1.6D-02, r^2= 7.4D+00
   Bfn.  Coefficient  Atom+Function         Bfn.  Coefficient  Atom+Function  
  ----- ------------  ---------------      ----- ------------  ---------------
    38      4.099943  1 P  dyz               34     -1.632820  1 P  dxx        
    37      1.390735  1 P  dyy               18      1.352943  1 P  pz         
   182     -1.262192  4 O  py                26     -1.238518  1 P  dyz        
    73     -1.127823  2 O  pz               237      1.007915  5 O  py         
   258     -0.989793  5 O  dyz              148     -0.968897  3 O  dyz        

 Vector   81  Occ=0.000000D+00  E= 6.892137D-01
              MO Center=  4.6D-03, -1.9D-02, -4.1D-02, r^2= 7.4D+00
   Bfn.  Coefficient  Atom+Function         Bfn.  Coefficient  Atom+Function  
  ----- ------------  ---------------      ----- ------------  ---------------
    36      4.378719  1 P  dxz               35     -2.648338  1 P  dxy        
    16     -1.437713  1 P  px                71      1.198393  2 O  px         
   181     -1.194676  4 O  px                24     -1.107396  1 P  dxz        
   238      1.032523  5 O  pz                91     -1.002753  2 O  dxz        
    23      0.991284  1 P  dxy              127      0.970050  3 O  py         

 Vector   82  Occ=0.000000D+00  E= 7.054125D-01
              MO Center=  3.8D-04,  2.3D-01, -1.1D-01, r^2= 6.3D+00
   Bfn.  Coefficient  Atom+Function         Bfn.  Coefficient  Atom+Function  
  ----- ------------  ---------------      ----- ------------  ---------------
    17     13.186741  1 P  py                56     -6.167157  1 P  fyyy       
    64     -6.173368  2 O  s                 51     -5.728888  1 P  fxxy       
    58     -5.517322  1 P  fyzz              18     -4.693518  1 P  pz         
    57      2.738568  1 P  fyyz              59      2.197569  1 P  fzzz       
   174      2.189589  4 O  s                119      2.105184  3 O  s          

 Vector   83  Occ=0.000000D+00  E= 7.091051D-01
              MO Center= -1.5D-01, -1.3D-01, -1.2D-01, r^2= 6.3D+00
   Bfn.  Coefficient  Atom+Function         Bfn.  Coefficient  Atom+Function  
  ----- ------------  ---------------      ----- ------------  ---------------
    16     12.524513  1 P  px               229      6.049944  5 O  s          
    53     -5.929813  1 P  fxyy              50     -5.679973  1 P  fxxx       
    18      5.476523  1 P  pz                55     -5.088554  1 P  fxzz       
   119     -3.472819  3 O  s                 59     -2.591408  1 P  fzzz       
   174     -2.563254  4 O  s                 52     -2.347109  1 P  fxxz       

 Vector   84  Occ=0.000000D+00  E= 7.091167D-01
              MO Center=  1.5D-01, -5.5D-02,  1.1D-01, r^2= 6.3D+00
   Bfn.  Coefficient  Atom+Function         Bfn.  Coefficient  Atom+Function  
  ----- ------------  ---------------      ----- ------------  ---------------
    18     11.783407  1 P  pz                16     -5.811593  1 P  px         
    59     -5.575193  1 P  fzzz             174     -5.470563  4 O  s          
    52     -5.060998  1 P  fxxz             119      4.972745  3 O  s          
    57     -4.632994  1 P  fyyz              17      4.132858  1 P  py         
    53      2.757235  1 P  fxyy              51     -2.726530  1 P  fxxy       

 Vector   85  Occ=0.000000D+00  E= 7.469416D-01
              MO Center= -4.5D-04,  7.1D-01, -2.8D-01, r^2= 8.3D+00
   Bfn.  Coefficient  Atom+Function         Bfn.  Coefficient  Atom+Function  
  ----- ------------  ---------------      ----- ------------  ---------------
    17     34.945480  1 P  py                64    -22.904733  2 O  s          
    18    -12.035948  1 P  pz                58    -11.890497  1 P  fyzz       
    51    -11.613841  1 P  fxxy              56     -9.383129  1 P  fyyy       
     5      6.361103  1 P  s                 52      6.290480  1 P  fxxz       
    37      5.715627  1 P  dyy               63     -5.260317  2 O  s          

 Vector   86  Occ=0.000000D+00  E= 7.504218D-01
              MO Center= -3.8D-01, -3.7D-01, -4.8D-02, r^2= 8.6D+00
   Bfn.  Coefficient  Atom+Function         Bfn.  Coefficient  Atom+Function  
  ----- ------------  ---------------      ----- ------------  ---------------
    16     30.559737  1 P  px                18     20.211956  1 P  pz         
   229     19.637101  5 O  s                174    -11.334987  4 O  s          
    55    -10.331380  1 P  fxzz              50     -8.718183  1 P  fxxx       
    53     -8.689267  1 P  fxyy             119     -8.260958  3 O  s          
    57     -7.390129  1 P  fyyz              17      7.033501  1 P  py         

 Vector   87  Occ=0.000000D+00  E= 7.504246D-01
              MO Center=  3.8D-01, -2.9D-01,  2.1D-01, r^2= 8.6D+00
   Bfn.  Coefficient  Atom+Function         Bfn.  Coefficient  Atom+Function  
  ----- ------------  ---------------      ----- ------------  ---------------
    18     28.897342  1 P  pz                16    -21.404890  1 P  px         
   119     17.900796  3 O  s                174    -16.104615  4 O  s          
    57    -10.548242  1 P  fyyz              17      9.939080  1 P  py         
    52     -9.005985  1 P  fxxz              59     -7.724259  1 P  fzzz       
    55      7.256478  1 P  fxzz              50      6.103856  1 P  fxxx       

 Vector   88  Occ=0.000000D+00  E= 7.561867D-01
              MO Center=  1.5D-04, -1.6D-01,  2.2D-02, r^2= 1.0D+01
   Bfn.  Coefficient  Atom+Function         Bfn.  Coefficient  Atom+Function  
  ----- ------------  ---------------      ----- ------------  ---------------
     5     39.323021  1 P  s                119    -16.520439  3 O  s          
   174    -16.538864  4 O  s                229    -16.524968  5 O  s          
    64    -12.461647  2 O  s                 34     10.356520  1 P  dxx        
    39     10.236440  1 P  dzz               37      9.317991  1 P  dyy        
    17     -4.852139  1 P  py               183      4.015192  4 O  pz         

 Vector   89  Occ=0.000000D+00  E= 8.165383D-01
              MO Center=  1.9D-02,  3.9D-02,  2.6D-02, r^2= 5.3D+00
   Bfn.  Coefficient  Atom+Function         Bfn.  Coefficient  Atom+Function  
  ----- ------------  ---------------      ----- ------------  ---------------
    58      7.651746  1 P  fyzz              52      2.880556  1 P  fxxz       
    57     -2.670581  1 P  fyyz             182     -2.421469  4 O  py         
    73      2.313058  2 O  pz                51     -1.890682  1 P  fxxy       
    56     -1.845607  1 P  fyyy             128     -1.239373  3 O  pz         
    93     -1.150736  2 O  dyz               53      1.125765  1 P  fxyy       

 Vector   90  Occ=0.000000D+00  E= 8.167183D-01
              MO Center= -2.0D-02, -7.3D-03, -1.1D-01, r^2= 5.3D+00
   Bfn.  Coefficient  Atom+Function         Bfn.  Coefficient  Atom+Function  
  ----- ------------  ---------------      ----- ------------  ---------------
[...]
   123      5.972752  3 O  px                98     -5.169422  2 O  fxyy       
    95     -5.129007  2 O  fxxx             100     -5.126971  2 O  fxzz       
   233      5.083825  5 O  px                71      4.959161  2 O  px         
   210     -4.833948  4 O  fxzz             205     -4.799194  4 O  fxxx       

 Vector  270  Occ=0.000000D+00  E= 1.367656D+01
              MO Center= -2.9D-03, -4.3D-01,  1.0D-01, r^2= 3.9D+00
   Bfn.  Coefficient  Atom+Function         Bfn.  Coefficient  Atom+Function  
  ----- ------------  ---------------      ----- ------------  ---------------
   179      9.276283  4 O  py               124      8.324095  3 O  py         
   234      8.361735  5 O  py               213     -4.734417  4 O  fyzz       
   206     -4.710580  4 O  fxxy             211     -4.697765  4 O  fyyy       
   182      4.578099  4 O  py               266     -4.197557  5 O  fyyy       
   125     -4.160573  3 O  pz               156     -4.176383  3 O  fyyy       

 Vector  271  Occ=0.000000D+00  E= 1.562663D+01
              MO Center=  6.6D-02, -2.6D-01,  5.1D-01, r^2= 3.5D+00
   Bfn.  Coefficient  Atom+Function         Bfn.  Coefficient  Atom+Function  
  ----- ------------  ---------------      ----- ------------  ---------------
   180     11.082506  4 O  pz               183      9.559565  4 O  pz         
   123     -6.875548  3 O  px               126     -6.574094  3 O  px         
   233      6.241402  5 O  px               236      6.059212  5 O  px         
    57      5.951056  1 P  fyyz             207     -5.873327  4 O  fxxz       
   212     -5.876891  4 O  fyyz             214     -5.874926  4 O  fzzz       

 Vector  272  Occ=0.000000D+00  E= 1.562795D+01
              MO Center= -3.2D-01, -3.2D-01, -4.6D-01, r^2= 3.5D+00
   Bfn.  Coefficient  Atom+Function         Bfn.  Coefficient  Atom+Function  
  ----- ------------  ---------------      ----- ------------  ---------------
   233      8.856867  5 O  px               236      7.357742  5 O  px         
    69      6.181802  2 O  py               123      6.054469  3 O  px         
    10      5.759335  1 P  px                72      5.385965  2 O  py         
   234      5.174152  5 O  py               127     -5.111734  3 O  py         
    54     -4.883710  1 P  fxyz             226      4.843529  5 O  s          

 Vector  273  Occ=0.000000D+00  E= 1.562839D+01
              MO Center=  2.5D-01,  5.7D-01, -1.4D-01, r^2= 3.5D+00
   Bfn.  Coefficient  Atom+Function         Bfn.  Coefficient  Atom+Function  
  ----- ------------  ---------------      ----- ------------  ---------------
    69     10.781576  2 O  py                72      9.432750  2 O  py         
   180     -6.908160  4 O  pz               123     -6.150464  3 O  px         
   183     -5.983586  4 O  pz                96     -5.742204  2 O  fxxy       
   101     -5.723224  2 O  fyyy             103     -5.692092  2 O  fyzz       
   106     -5.306311  2 O  fxxy             126     -5.266183  3 O  px         

 Vector  274  Occ=0.000000D+00  E= 1.635266D+01
              MO Center=  1.1D-04, -4.9D-03, -3.2D-02, r^2= 3.8D+00
   Bfn.  Coefficient  Atom+Function         Bfn.  Coefficient  Atom+Function  
  ----- ------------  ---------------      ----- ------------  ---------------
     5     47.940415  1 P  s                183     18.012136  4 O  pz         
   118    -17.270170  3 O  s                173    -17.268912  4 O  s          
   228    -17.271791  5 O  s                 63    -17.135791  2 O  s          
    72     17.101321  2 O  py               126     14.695752  3 O  px         
   236    -14.728385  5 O  px                22      9.207539  1 P  dxx        

 Vector  275  Occ=0.000000D+00  E= 1.675371D+01
              MO Center=  1.1D-01, -2.6D-01,  7.7D-01, r^2= 2.2D+00
   Bfn.  Coefficient  Atom+Function         Bfn.  Coefficient  Atom+Function  
  ----- ------------  ---------------      ----- ------------  ---------------
   173     10.427744  4 O  s                118     -6.132276  3 O  s          
   171      5.047468  4 O  s                180      5.053311  4 O  pz         
   183      4.789688  4 O  pz               228     -4.751523  5 O  s          
    57      4.192568  1 P  fyyz             193     -4.207742  4 O  dxx        
   196     -4.176777  4 O  dyy              198     -4.178007  4 O  dzz        

 Vector  276  Occ=0.000000D+00  E= 1.675442D+01
              MO Center= -1.3D-01, -7.2D-01, -5.4D-01, r^2= 2.2D+00
   Bfn.  Coefficient  Atom+Function         Bfn.  Coefficient  Atom+Function  
  ----- ------------  ---------------      ----- ------------  ---------------
   228      9.633570  5 O  s                118     -8.708017  3 O  s          
   226      4.661266  5 O  s                116     -4.210210  3 O  s          
   248     -3.910521  5 O  dxx               55     -3.877303  1 P  fxzz       
   251     -3.849424  5 O  dyy              253     -3.855411  5 O  dzz        
   233     -3.672987  5 O  px               138      3.545051  3 O  dxx        

 Vector  277  Occ=0.000000D+00  E= 1.676151D+01
              MO Center=  1.5D-02,  9.7D-01, -3.2D-01, r^2= 1.9D+00
   Bfn.  Coefficient  Atom+Function         Bfn.  Coefficient  Atom+Function  
  ----- ------------  ---------------      ----- ------------  ---------------
    63     11.464919  2 O  s                 61      5.495380  2 O  s          
    69      5.052398  2 O  py                72      4.595385  2 O  py         
    83     -4.514416  2 O  dxx               86     -4.502494  2 O  dyy        
    88     -4.518513  2 O  dzz              173     -3.981861  4 O  s          
    92     -3.669554  2 O  dyy               58      3.629381  1 P  fyzz       

 Vector  278  Occ=0.000000D+00  E= 1.712188D+01
              MO Center=  1.7D-04,  1.1D-02, -3.8D-02, r^2= 3.2D+00
   Bfn.  Coefficient  Atom+Function         Bfn.  Coefficient  Atom+Function  
  ----- ------------  ---------------      ----- ------------  ---------------
     5     42.191174  1 P  s                183     17.507349  4 O  pz         
    72     16.589977  2 O  py                 3     16.108371  1 P  s          
   126     14.286178  3 O  px               236    -14.318617  5 O  px         
     2     10.985097  1 P  s                118     -8.793652  3 O  s          
   173     -8.793397  4 O  s                204     -8.767975  4 O  dzz        

 Vector  279  Occ=0.000000D+00  E= 1.864366D+01
              MO Center=  2.6D-04, -7.3D-04, -3.4D-02, r^2= 4.2D+00
   Bfn.  Coefficient  Atom+Function         Bfn.  Coefficient  Atom+Function  
  ----- ------------  ---------------      ----- ------------  ---------------
     3     41.206843  1 P  s                  5    -34.100451  1 P  s          
     2     27.851784  1 P  s                  4     -7.406182  1 P  s          
    64     -7.325281  2 O  s                119     -7.325046  3 O  s          
   174     -7.323464  4 O  s                229     -7.324956  5 O  s          
    34      6.749111  1 P  dxx               37      6.751965  1 P  dyy        


   alpha - beta orbital overlaps 
   ----------------------------- 


   alpha      1      2      3      4      5      6      7      8      9     10
    beta      1      2      3      5      4      6      7      8      9     10
 overlap   1.000  1.000  0.977  0.780  0.797  1.000  1.000  1.000  1.000  0.978


   alpha     11     12     13     14     15     16     17     18     19     20
    beta     13     12     11     14     17     15     16     20     21     22
 overlap   0.977  0.881  0.881  0.997  0.994  0.962  0.962  0.835  0.836  0.996


   alpha     21     22     23     24     25     26     27     28     29     30
    beta     19     18     25     24     23     26     29     27     28     30
 overlap   0.725  0.723  0.800  0.800  1.000  0.999  0.988  0.996  0.996  0.986


   alpha     31     32     33     34     35     36     37     38     39     40
    beta     33     31     32     36     34     35     37     38     39     41
 overlap   0.976  0.994  0.996  0.996  0.787  0.785  0.881  0.882  1.000  0.993


   alpha     41     42     43     44     45     46     47     48     49     50
    beta     42     40     45     43     44     46     47     48     49     52
 overlap   0.993  1.000  0.997  0.991  0.990  0.992  0.999  0.999  0.995  0.997


   alpha     51     52     53     54     55     56     57     58     59     60
    beta     50     51     53     54     55     58     56     57     59     60
 overlap   0.995  0.993  0.993  0.993  1.000  0.979  0.982  0.992  0.997  0.997


   alpha     61     62     63     64     65     66     67     68     69     70
    beta     61     64     62     63     66     67     65     68     69     71
 overlap   0.999  0.996  0.897  0.896  0.989  0.990  0.998  0.975  0.975  0.974


   alpha     71     72     73     74     75     76     77     78     79     80
    beta     72     70     73     73     79     74     75     76     77     81
 overlap   0.974  0.999  0.707  0.682  0.927  0.834  0.837  0.961  0.964  0.833


   alpha     81     82     83     84     85     86     87     88     89     90
    beta     80     84     82     83     87     85     86     88     90     91
 overlap   0.833  0.998  0.922  0.922  0.990  0.740  0.740  0.990  0.997  0.995


   alpha     91     92     93     94     95     96     97     98     99    100
    beta     89     94     92     93     95     96     99     97     98    101
 overlap   0.997  0.993  0.992  0.998  0.997  0.997  0.996  0.996  0.998  0.997


   alpha    101    102    103    104    105    106    107    108    109    110
    beta    102    100    103    106    104    105    107    110    108    109
 overlap   0.997  1.000  1.000  0.861  0.970  0.868  0.999  0.936  0.938  0.978


   alpha    111    112    113    114    115    116    117    118    119    120
    beta    112    113    111    116    114    115    117    118    121    119
 overlap   0.974  0.974  1.000  0.993  0.985  0.991  0.995  0.995  0.997  0.988


   alpha    121    122    123    124    125    126    127    128    129    130
    beta    120    122    126    130    131    127    128    133    132    125
 overlap   0.988  0.998  0.993  0.924  0.928  0.776  0.765  0.730  0.722  0.623


   alpha    131    132    133    134    135    136    137    138    139    140
    beta    123    124    129    136    134    135    137    142    138    139
 overlap   0.551  0.646  0.747  0.998  0.886  0.884  0.997  0.993  0.680  0.664


   alpha    141    142    143    144    145    146    147    148    149    150
    beta    140    141    143    144    145    146    147    148    151    149
 overlap   0.763  0.779  0.994  0.875  0.874  0.993  0.875  0.875  0.994  0.965


   alpha    151    152    153    154    155    156    157    158    159    160
    beta    150    152    155    153    154    158    157    156    161    162
 overlap   0.968  0.997  0.993  0.783  0.784  0.922  0.922  0.999  0.849  0.845


   alpha    161    162    163    164    165    166    167    168    169    170
    beta    163    159    160    164    165    166    167    168    170    171
 overlap   0.997  0.796  0.793  0.996  0.999  0.951  0.965  0.934  0.999  0.998


   alpha    171    172    173    174    175    176    177    178    179    180
    beta    169    172    175    173    174    176    177    180    178    179
 overlap   0.999  0.999  0.987  0.985  0.993  0.973  0.973  0.991  0.979  0.985


   alpha    181    182    183    184    185    186    187    188    189    190
    beta    182    183    181    184    185    186    187    190    188    189
 overlap   0.990  0.990  1.000  0.999  0.999  0.999  0.999  0.999  0.996  0.996


   alpha    191    192    193    194    195    196    197    198    199    200
    beta    193    191    192    194    198    199    198    199    195    202
 overlap   0.996  0.988  0.985  1.000  0.782  0.782  0.619  0.618  1.000  1.000


   alpha    201    202    203    204    205    206    207    208    209    210
    beta    200    201    203    206    204    205    207    215    208    209
 overlap   0.870  0.872  1.000  1.000  0.998  0.998  0.919  0.993  0.955  0.955


   alpha    211    212    213    214    215    216    217    218    219    220
    beta    216    212    210    211    213    214    217    221    222    220
 overlap   0.916  0.788  0.624  0.811  0.857  0.856  0.941  0.931  0.943  0.991


   alpha    221    222    223    224    225    226    227    228    229    230
    beta    223    218    219    224    225    228    226    227    229    230
 overlap   0.938  0.916  0.911  0.832  0.831  0.923  0.902  0.941  0.966  0.988


   alpha    231    232    233    234    235    236    237    238    239    240
    beta    231    233    234    232    235    236    238    239    237    242
 overlap   0.988  0.942  0.942  0.993  0.881  0.881  0.824  0.824  0.994  0.728


   alpha    241    242    243    244    245    246    247    248    249    250
    beta    241    240    243    245    246    244    249    247    248    250
 overlap   0.727  0.990  0.991  0.993  0.993  1.000  0.998  0.979  0.981  0.986


   alpha    251    252    253    254    255    256    257    258    259    260
    beta    251    252    255    253    254    257    256    258    259    262
 overlap   0.985  0.979  0.979  0.997  0.997  0.903  0.976  0.927  0.999  0.974


   alpha    261    262    263    264    265    266    267    268    269    270
    beta    260    261    264    265    263    266    267    270    268    269
 overlap   0.977  0.993  0.991  0.992  1.000  0.991  0.991  0.998  0.994  0.995


   alpha    271    272    273    274    275    276    277    278    279
    beta    273    271    272    274    277    275    276    278    279
 overlap   0.821  0.953  0.851  1.000  0.997  0.995  0.996  0.999  1.000

     --------------------------
     Expectation value of S2:  
     --------------------------
      <S2> =      1.7606 (Exact =     0.7500)


 center of mass
 --------------
 x =   0.00034327 y =  -0.00122259 z =  -0.06364514

 moments of inertia (a.u.)
 ------------------
         394.267596919641           0.020993033242          -0.038389421955
           0.020993033242         394.412778959407           0.142062535234
          -0.038389421955           0.142062535234         394.324192308209

     Multipole analysis of the density
     ---------------------------------

     L   x y z        total         alpha         beta         nuclear
     -   - - -        -----         -----         ----         -------
     0   0 0 0     -0.000000    -24.000000    -23.000000     47.000000

     1   1 0 0     -0.000009     -0.009547     -0.006613      0.016151
     1   0 1 0      0.065008     -0.988215      1.110701     -0.057478
     1   0 0 1     -0.022047      1.884614      1.084623     -2.991284

     2   2 0 0    -26.280652    -62.968239    -61.961144     98.648732
     2   1 1 0     -0.000063      0.012623     -0.002166     -0.010520
     2   1 0 1     -0.000185     -0.007747     -0.010611      0.018173
     2   0 2 0    -25.907175    -66.325975    -58.157383     98.576182
     2   0 1 1     -0.129574      1.272725     -1.334903     -0.067396
     2   0 0 2    -26.230848    -63.482778    -61.558867     98.810798


 Task  times  cpu:      104.1s     wall:      277.7s


                                NWChem Input Module
                                -------------------


 Summary of allocated global arrays
-----------------------------------
  No active global arrays


MA_summarize_allocated_blocks: starting scan ...
heap block 'gridpts', handle 89, address 0x1136d6a8:
	type of elements:		double precision
	number of elements:		33554432
	address of client space:	0x1136d700
	index for client space:		11494969
	total number of bytes:		268435552
MA_summarize_allocated_blocks: scan completed: 1 heap block, 0 stack blocks
MA usage statistics:

	allocation statistics:
					      heap	     stack
					      ----	     -----
	current number of blocks	         1	         0
	maximum number of blocks	        21	        53
	current total bytes		 268435552	         0
	maximum total bytes		 269959568	  38091784
	maximum total K-bytes		    269960	     38092
	maximum total M-bytes		       270	        39


                                     CITATION
                                     --------
                Please cite the following reference when publishing
                           results obtained with NWChem:

          E. Apra, E. J. Bylaska, W. A. de Jong, N. Govind, K. Kowalski,
       T. P. Straatsma, M. Valiev, H. J. J. van Dam, Y. Alexeev, J. Anchell,
       V. Anisimov, F. W. Aquino, R. Atta-Fynn, J. Autschbach, N. P. Bauman,
     J. C. Becca, D. E. Bernholdt, K. Bhaskaran-Nair, S. Bogatko, P. Borowski,
         J. Boschen, J. Brabec, A. Bruner, E. Cauet, Y. Chen, G. N. Chuev,
      C. J. Cramer, J. Daily, M. J. O. Deegan, T. H. Dunning Jr., M. Dupuis,
   K. G. Dyall, G. I. Fann, S. A. Fischer, A. Fonari, H. Fruchtl, L. Gagliardi,
      J. Garza, N. Gawande, S. Ghosh, K. Glaesemann, A. W. Gotz, J. Hammond,
       V. Helms, E. D. Hermes, K. Hirao, S. Hirata, M. Jacquelin, L. Jensen,
   B. G. Johnson, H. Jonsson, R. A. Kendall, M. Klemm, R. Kobayashi, V. Konkov,
      S. Krishnamoorthy, M. Krishnan, Z. Lin, R. D. Lins, R. J. Littlefield,
      A. J. Logsdail, K. Lopata, W. Ma, A. V. Marenich, J. Martin del Campo,
   D. Mejia-Rodriguez, J. E. Moore, J. M. Mullin, T. Nakajima, D. R. Nascimento,
    J. A. Nichols, P. J. Nichols, J. Nieplocha, A. Otero-de-la-Roza, B. Palmer,
    A. Panyala, T. Pirojsirikul, B. Peng, R. Peverati, J. Pittner, L. Pollack,
   R. M. Richard, P. Sadayappan, G. C. Schatz, W. A. Shelton, D. W. Silverstein,
   D. M. A. Smith, T. A. Soares, D. Song, M. Swart, H. L. Taylor, G. S. Thomas,
            V. Tipparaju, D. G. Truhlar, K. Tsemekhman, T. Van Voorhis,
      A. Vazquez-Mayagoitia, P. Verma, O. Villa, A. Vishnu, K. D. Vogiatzis,
        D. Wang, J. H. Weare, M. J. Williamson, T. L. Windus, K. Wolinski,
        A. T. Wong, Q. Wu, C. Yang, Q. Yu, M. Zacharias, Z. Zhang, Y. Zhao,
                                and R. J. Harrison
                        "NWChem: Past, present, and future
                         J. Chem. Phys. 152, 184102 (2020)
                               doi:10.1063/5.0004997

                                      AUTHORS
                                      -------
  E. Apra, E. J. Bylaska, N. Govind, K. Kowalski, M. Valiev, D. Mejia-Rodriguez,
       A. Kunitsa, N. P. Bauman, A. Panyala, W. A. de Jong, T. P. Straatsma,
   H. J. J. van Dam, D. Wang, T. L. Windus, J. Hammond, J. Autschbach, A. Woods,
    K. Bhaskaran-Nair, J. Brabec, K. Lopata, S. A. Fischer, S. Krishnamoorthy,
     M. Jacquelin, W. Ma, M. Klemm, O. Villa, Y. Chen, V. Anisimov, F. Aquino,
     S. Hirata, M. T. Hackler, E. Hermes, L. Jensen, J. E. Moore, J. C. Becca,
      V. Konjkov, T. Risthaus, M. Malagoli, A. Marenich, A. Otero-de-la-Roza,
        J. Mullin, P. Nichols, R. Peverati, J. Pittner, Y. Zhao, P.-D. Fan,
        A. Fonari, M. J. Williamson, R. J. Harrison, J. R. Rehr, M. Dupuis,
     D. Silverstein, D. M. A. Smith, J. Nieplocha, V. Tipparaju, M. Krishnan,
     B. E. Van Kuiken, A. Vazquez-Mayagoitia, M. Swart, Q. Wu, T. Van Voorhis,
     A. A. Auer, M. Nooijen, L. D. Crosby, E. Brown, G. Cisneros, G. I. Fann,
   H. Fruchtl, J. Garza, K. Hirao, R. A. Kendall, J. A. Nichols, K. Tsemekhman,
    K. Wolinski, J. Anchell, D. E. Bernholdt, P. Borowski, T. Clark, D. Clerc,
   H. Dachsel, M. J. O. Deegan, K. Dyall, D. Elwood, E. Glendening, M. Gutowski,
   A. C. Hess, J. Jaffe, B. G. Johnson, J. Ju, R. Kobayashi, R. Kutteh, Z. Lin,
   R. Littlefield, X. Long, B. Meng, T. Nakajima, S. Niu, L. Pollack, M. Rosing,
   K. Glaesemann, G. Sandrone, M. Stave, H. Taylor, G. Thomas, J. H. van Lenthe,
                               A. T. Wong, Z. Zhang.

 Total times  cpu:      104.2s     wall:      277.8s
