 argument  1 = m1e/mol.nwi
                                         
                                         


             Northwest Computational Chemistry Package (NWChem) 7.2.2
             --------------------------------------------------------


                    Environmental Molecular Sciences Laboratory
                       Pacific Northwest National Laboratory
                                Richland, WA 99352

                              Copyright (c) 1994-2022
                       Pacific Northwest National Laboratory
                            Battelle Memorial Institute

             NWChem is an open-source computational chemistry package
                        distributed under the terms of the
                      Educational Community License (ECL) 2.0
             A copy of the license is included with this distribution
                              in the LICENSE.TXT file

                                  ACKNOWLEDGMENT
                                  --------------

            This software and its documentation were developed at the
            EMSL at Pacific Northwest National Laboratory, a multiprogram
            national laboratory, operated for the U.S. Department of Energy
            by Battelle under Contract Number DE-AC05-76RL01830. Support
            for this work was provided by the Department of Energy Office
            of Biological and Environmental Research, Office of Basic
            Energy Sciences, and the Office of Advanced Scientific Computing.


           Job information
           ---------------

    hostname        = r241.ib.bridges2.psc.edu
    program         = nwchem
    date            = Tue Oct  1 15:17:39 2024

    compiled        = Mon_Mar_18_17:03:37_2024
    source          = /ocean/projects/pscstaff/mmadrid/nwchem-7.2.2
    nwchem branch   = 7.2.2
    nwchem revision = 74936fb9
    ga revision     = 5.8.0
    use scalapack   = F
    input           = m1e/mol.nwi
    prefix          = dft.
    data base       = .//dft.db
    status          = startup
    nproc           =       15
    time left       =     -1s



           Memory information
           ------------------

    heap     =   67108862 doubles =    512.0 Mbytes
    stack    =   67108859 doubles =    512.0 Mbytes
    global   =  134217728 doubles =   1024.0 Mbytes (distinct from heap & stack)
    total    =  268435449 doubles =   2048.0 Mbytes
    verify   = yes
    hardfail = no 


           Directory information
           ---------------------

  0 permanent = ./
  0 scratch   = /jet/home/hmt47/nwchem_scratch/




                                NWChem Input Module
                                -------------------


  library name resolved from: environment
  library file name is: </opt/packages/nwchem/nwchem7.2.2/share/nwchem/libraries/>
  


 Summary of "ao basis" -> "" (cartesian)
 ------------------------------------------------------------------------------
       Tag                 Description            Shells   Functions and Types
 ---------------- ------------------------------  ------  ---------------------
 *                        aug-cc-pVTZ                 on all atoms 


  pbe96 is a nonlocal functional; adding pw91lda local functional. 

 Scaling coordinates for geometry "geometry" by  1.889725989
 (inverse scale =  0.529177249)



                             Geometry "geometry" -> ""
                             -------------------------

 Output coordinates in angstroms (scale by  1.889725989 to convert to a.u.)

  No.       Tag          Charge          X              Y              Z
 ---- ---------------- ---------- -------------- -------------- --------------
    1 S                   16.0000    -0.00577748     0.00356329    -0.06051397
    2 O                    8.0000    -0.16964765     1.56209415    -0.01562276
    3 O                    8.0000    -1.43926407    -0.63077099    -0.01614626
    4 O                    8.0000     0.75332320    -0.43604245     1.23886098

      Atomic Mass 
      ----------- 

      S                 31.972070
      O                 15.994910


 Effective nuclear repulsion energy (a.u.)     169.7022734960

            Nuclear Dipole moment (a.u.) 
            ----------------------------
        X                 Y               Z
 ---------------- ---------------- ----------------
   -13.1093085599     7.5952969021    16.4189072308


            XYZ format geometry
            -------------------
     4
 geometry
 S                    -0.00577748     0.00356329    -0.06051397
 O                    -0.16964765     1.56209415    -0.01562276
 O                    -1.43926407    -0.63077099    -0.01614626
 O                     0.75332320    -0.43604245     1.23886098

 ==============================================================================
                                internuclear distances
 ------------------------------------------------------------------------------
       center one      |      center two      | atomic units |  angstroms
 ------------------------------------------------------------------------------
    2 O                |   1 S                |     2.96265  |     1.56776
    3 O                |   1 S                |     2.96346  |     1.56819
    4 O                |   1 S                |     2.96263  |     1.56776
 ------------------------------------------------------------------------------
                         number of included internuclear distances:          3
 ==============================================================================



 ==============================================================================
                                 internuclear angles
 ------------------------------------------------------------------------------
        center 1       |       center 2       |       center 3       |  degrees
 ------------------------------------------------------------------------------
    2 O                |   1 S                |   3 O                |   107.80
    2 O                |   1 S                |   4 O                |   107.80
    3 O                |   1 S                |   4 O                |   107.80
 ------------------------------------------------------------------------------
                            number of included internuclear angles:          3
 ==============================================================================




                                 NWChem DFT Module
                                 -----------------


                      Basis "ao basis" -> "ao basis" (cartesian)
                      -----
  S (Sulphur)
  -----------
            Exponent  Coefficients 
       -------------- ---------------------------------------------------------
  1 S  3.74100000E+05  0.000054
  1 S  5.60500000E+04  0.000421
  1 S  1.27600000E+04  0.002207
  1 S  3.61500000E+03  0.009193
  1 S  1.18300000E+03  0.032112
  1 S  4.28800000E+02  0.094668
  1 S  1.67800000E+02  0.223630
  1 S  6.94700000E+01  0.374393
  1 S  2.98400000E+01  0.329108
  1 S  1.27200000E+01  0.084704
  1 S  5.24400000E+00  0.000441
  1 S  2.21900000E+00  0.001648
  1 S  3.49000000E-01  0.000301

  2 S  3.74100000E+05 -0.000015
  2 S  5.60500000E+04 -0.000116
  2 S  1.27600000E+04 -0.000612
  2 S  3.61500000E+03 -0.002554
  2 S  1.18300000E+03 -0.009087
  2 S  4.28800000E+02 -0.027705
  2 S  1.67800000E+02 -0.072002
  2 S  6.94700000E+01 -0.146439
  2 S  2.98400000E+01 -0.195150
  2 S  1.27200000E+01  0.008192
  2 S  5.24400000E+00  0.516601
  2 S  2.21900000E+00  0.542178
  2 S  3.49000000E-01 -0.009181

  3 S  3.74100000E+05  0.000004
  3 S  5.60500000E+04  0.000034
  3 S  1.27600000E+04  0.000178
  3 S  3.61500000E+03  0.000741
  3 S  1.18300000E+03  0.002646
  3 S  4.28800000E+02  0.008075
  3 S  1.67800000E+02  0.021228
  3 S  6.94700000E+01  0.043832
  3 S  2.98400000E+01  0.061272
  3 S  1.27200000E+01 -0.003615
  3 S  5.24400000E+00 -0.204510
  3 S  2.21900000E+00 -0.381871
  3 S  3.49000000E-01  0.714147

  4 S  7.76700000E-01  1.000000

  5 S  1.32200000E-01  1.000000

  6 S  4.97000000E-02  1.000000

  7 P  5.74400000E+02  0.002423
  7 P  1.35800000E+02  0.019280
  7 P  4.31900000E+01  0.088540
  7 P  1.58700000E+01  0.254654
  7 P  6.20800000E+00  0.433984
  7 P  2.48300000E+00  0.354953
  7 P  3.22900000E-01 -0.005030

  8 P  5.74400000E+02 -0.000620
  8 P  1.35800000E+02 -0.004939
  8 P  4.31900000E+01 -0.023265
  8 P  1.58700000E+01 -0.068520
  8 P  6.20800000E+00 -0.123896
  8 P  2.48300000E+00 -0.096950
  8 P  3.22900000E-01  0.569394

  9 P  8.68800000E-01  1.000000

 10 P  1.09800000E-01  1.000000

 11 P  3.51000000E-02  1.000000

 12 D  2.69000000E-01  1.000000

 13 D  8.19000000E-01  1.000000

 14 D  1.01000000E-01  1.000000

 15 F  5.57000000E-01  1.000000

 16 F  2.18000000E-01  1.000000

  O (Oxygen)
  ----------
            Exponent  Coefficients 
       -------------- ---------------------------------------------------------
  1 S  1.53300000E+04  0.000508
  1 S  2.29900000E+03  0.003929
  1 S  5.22400000E+02  0.020243
  1 S  1.47300000E+02  0.079181
  1 S  4.75500000E+01  0.230687
  1 S  1.67600000E+01  0.433118
  1 S  6.20700000E+00  0.350260
  1 S  6.88200000E-01 -0.008154

  2 S  1.53300000E+04 -0.000115
  2 S  2.29900000E+03 -0.000895
  2 S  5.22400000E+02 -0.004636
  2 S  1.47300000E+02 -0.018724
  2 S  4.75500000E+01 -0.058463
  2 S  1.67600000E+01 -0.136463
  2 S  6.20700000E+00 -0.175740
  2 S  6.88200000E-01  0.603418

  3 S  1.75200000E+00  1.000000

  4 S  2.38400000E-01  1.000000

  5 S  7.37600000E-02  1.000000

  6 P  3.44600000E+01  0.015928
  6 P  7.74900000E+00  0.099740
  6 P  2.28000000E+00  0.310492

  7 P  7.15600000E-01  1.000000

  8 P  2.14000000E-01  1.000000

  9 P  5.97400000E-02  1.000000

 10 D  2.31400000E+00  1.000000

 11 D  6.45000000E-01  1.000000

 12 D  2.14000000E-01  1.000000

 13 F  1.42800000E+00  1.000000

 14 F  5.00000000E-01  1.000000



 Summary of "ao basis" -> "ao basis" (cartesian)
 ------------------------------------------------------------------------------
       Tag                 Description            Shells   Functions and Types
 ---------------- ------------------------------  ------  ---------------------
 S                        aug-cc-pVTZ               16       59   6s5p3d2f
 O                        aug-cc-pVTZ               14       55   5s4p3d2f




 Summary of "ao basis" -> "ao basis" (cartesian)
 ------------------------------------------------------------------------------
       Tag                 Description            Shells   Functions and Types
 ---------------- ------------------------------  ------  ---------------------
 S                        aug-cc-pVTZ               16       59   6s5p3d2f
 O                        aug-cc-pVTZ               14       55   5s4p3d2f


  Caching 1-el integrals 

            General Information
            -------------------
          SCF calculation type: DFT
          Wavefunction type:  spin polarized.
          No. of atoms     :     4
          No. of electrons :    41
           Alpha electrons :    21
            Beta electrons :    20
          Charge           :    -1
          Spin multiplicity:     2
          Use of symmetry is: off; symmetry adaption is: off
          Maximum number of iterations: 100
          AO basis - number of functions:   224
                     number of shells:    58
          Convergence on energy requested:  1.00D-06
          Convergence on density requested:  1.00D-05
          Convergence on gradient requested:  5.00D-04

              XC Information
              --------------
          PerdewBurkeErnzerhof Exchange Functional  1.000          
            Perdew 1991 LDA Correlation Functional  1.000 local    
           PerdewBurkeErnz. Correlation Functional  1.000 non-local

             Grid Information
             ----------------
          Grid used for XC integration:  medium    
          Radial quadrature: Mura-Knowles        
          Angular quadrature: Lebedev. 
          Tag              B.-S. Rad. Rad. Pts. Rad. Cut. Ang. Pts.
          ---              ---------- --------- --------- ---------
          S                   1.00       88          10.0       590
          O                   0.60       49          11.0       434
          Grid pruning is: on 
          Number of quadrature shells:   235
          Spatial weights used:  Erf1

          Convergence Information
          -----------------------
          Convergence aids based upon iterative change in 
          total energy or number of iterations. 
          Levelshifting, if invoked, occurs when the 
          HOMO/LUMO gap drops below (HL_TOL):  1.00D-02
          DIIS, if invoked, will attempt to extrapolate 
          using up to (NFOCK): 10 stored Fock matrices.

                    Damping(40%)  Levelshifting(0.0)       DIIS
                  --------------- ------------------- ---------------
          dE  on:    start            0.00D+00            start   
          dE off:  100 iters          0.00D+00          100 iters 


      Screening Tolerance Information
      -------------------------------
          Density screening/tol_rho:  1.00D-10
          AO Gaussian exp screening on grid/accAOfunc:  14
          CD Gaussian exp screening on grid/accCDfunc:  20
          XC Gaussian exp screening on grid/accXCfunc:  20
          Schwarz screening/accCoul:  1.00D-08


 Forcing the number of linearly dependent vectors to be  0

      Superposition of Atomic Density Guess
      -------------------------------------

 Sum of atomic energies:        -621.83087188
   Time after variat. SCF:      0.4
   Time prior to 1st pass:      0.4

 Grid_pts file          = /jet/home/hmt47/nwchem_scratch//dft.gridpts.00
 Record size in doubles =  12289        No. of grid_pts per rec  =   3070
 Max. records in memory =      5        Max. recs in file   =  67550051

 Grid integrated density:      40.000002228050
 Requested integration accuracy:   0.10E-05

           Memory utilization after 1st SCF pass: 
           Heap Space remaining (MW):       33.49            33487166
          Stack Space remaining (MW):       67.11            67106956

   convergence    iter        energy       DeltaE   RMS-Dens  Diis-err    time
 ---------------- ----- ----------------- --------- --------- ---------  ------
 d=40,ls=0.0,diis     1   -624.0662217651 -7.94D+02  6.24D-03  8.15D+00     0.9
                                                     5.92D-03  7.41D+00
 Grid integrated density:      40.600002416040
 Requested integration accuracy:   0.10E-05
 d=40,ls=0.0,diis     2   -623.7376217604  3.29D-01  7.91D-03  1.51D+00     2.4
                                                     1.16D-02  1.38D+00
 Grid integrated density:      40.840002212754
 Requested integration accuracy:   0.10E-05
 d=40,ls=0.0,diis     3   -622.9063710075  8.31D-01  2.79D-03  1.47D+00     3.9
                                                     6.49D-03  1.31D+00
 Grid integrated density:      40.936002326129
 Requested integration accuracy:   0.10E-05
 d=40,ls=0.0,diis     4   -623.4431115060 -5.37D-01  1.30D-03  2.59D-01     5.3
                                                     2.54D-03  2.29D-01
 Grid integrated density:      40.974402359217
 Requested integration accuracy:   0.10E-05
 d=40,ls=0.0,diis     5   -623.5542742588 -1.11D-01  4.47D-04  6.84D-02     6.8
                                                     1.04D-03  6.09D-02
 Grid integrated density:      40.989762380924
 Requested integration accuracy:   0.10E-05
  Resetting Diis
 d=40,ls=0.0,diis     6   -623.5923220242 -3.80D-02  2.99D-04  1.80D-02     8.3
                                                     4.49D-04  1.61D-02
 Grid integrated density:      40.995906337137
 Requested integration accuracy:   0.10E-05
 d=40,ls=0.0,diis     7   -623.6056372405 -1.33D-02  3.58D-04  4.00D-03     9.7
                                                     4.29D-04  3.64D-03
 Grid integrated density:      40.998363952363
 Requested integration accuracy:   0.10E-05
 d=40,ls=0.0,diis     8   -623.6064576381 -8.20D-04  1.43D-04  7.90D-03    11.2
                                                     2.24D-04  8.00D-03
 Grid integrated density:      40.999346986858
 Requested integration accuracy:   0.10E-05
 d=40,ls=0.0,diis     9   -623.6110032419 -4.55D-03  5.23D-05  1.47D-03    12.6
                                                     6.43D-05  1.51D-03
 Grid integrated density:      40.999740199490
 Requested integration accuracy:   0.10E-05
 d=40,ls=0.0,diis    10   -623.6124508570 -1.45D-03  3.93D-05  2.87D-04    14.1
                                                     3.15D-05  2.98D-04
 Grid integrated density:      40.999897484838
 Requested integration accuracy:   0.10E-05
 d=40,ls=0.0,diis    11   -623.6129723580 -5.22D-04  1.15D-05  4.91D-05    15.5
                                                     1.41D-05  5.33D-05
 d=40,ls=0.0,diis    12   -623.6131687934 -1.96D-04  4.03D-06  6.38D-06    17.0
                                                     5.41D-06  7.30D-06
 d=40,ls=0.0,diis    13   -623.6132441128 -7.53D-05  1.58D-06  1.00D-06    18.7
                                                     2.18D-06  1.19D-06
 d=40,ls=0.0,diis    14   -623.6132738769 -2.98D-05  7.27D-07  1.78D-07    20.1
                                                     1.03D-06  2.15D-07
 d=40,ls=0.0,diis    15   -623.6132857343 -1.19D-05  3.00D-07  3.02D-08    21.6
                                                     4.30D-07  3.70D-08
 d=40,ls=0.0,diis    16   -623.6132904685 -4.73D-06  1.14D-07  4.20D-09    23.0
                                                     1.69D-07  5.48D-09
 d=40,ls=0.0,diis    17   -623.6132923603 -1.89D-06  4.41D-08  6.60D-10    24.5
                                                     6.95D-08  8.92D-10
 d=40,ls=0.0,diis    18   -623.6132931167 -7.56D-07  1.75D-08  1.04D-10    26.1
                                                     2.78D-08  1.43D-10


         Total DFT energy =     -623.613293116707
      One electron energy =    -1206.763405221549
           Coulomb energy =      464.641929802675
    Exchange-Corr. energy =      -51.194091193827
 Nuclear repulsion energy =      169.702273495994

 Numeric. integr. density =       41.000002169370

     Total iterative time =     26.2s



                    DFT Final Alpha Molecular Orbital Analysis
                    ------------------------------------------

 Vector    1  Occ=1.000000D+00  E=-8.804538D+01
              MO Center= -5.8D-03,  3.6D-03, -6.1D-02, r^2= 3.6D-03
   Bfn.  Coefficient  Atom+Function         Bfn.  Coefficient  Atom+Function  
  ----- ------------  ---------------      ----- ------------  ---------------
     1      1.002484  1 S  s                  5     -0.033722  1 S  s          

 Vector    2  Occ=1.000000D+00  E=-1.855837D+01
              MO Center=  3.3D-02,  7.8D-01,  3.8D-01, r^2= 1.7D+00
   Bfn.  Coefficient  Atom+Function         Bfn.  Coefficient  Atom+Function  
  ----- ------------  ---------------      ----- ------------  ---------------
    60      0.767147  2 O  s                170      0.548210  4 O  s          
   115      0.257208  3 O  s                 62      0.048949  2 O  s          
    63     -0.047957  2 O  s                173     -0.036493  4 O  s          
   172      0.035079  4 O  s                  6      0.026322  1 S  s          

 Vector    3  Occ=1.000000D+00  E=-1.855836D+01
              MO Center=  4.1D-01,  2.7D-01,  7.8D-01, r^2= 1.5D+00
   Bfn.  Coefficient  Atom+Function         Bfn.  Coefficient  Atom+Function  
  ----- ------------  ---------------      ----- ------------  ---------------
   170      0.780262  4 O  s                 60     -0.582852  2 O  s          
   115      0.076000  3 O  s                172      0.049494  4 O  s          
   173     -0.042214  4 O  s                 62     -0.036867  2 O  s          
    63      0.029170  2 O  s          

 Vector    4  Occ=1.000000D+00  E=-1.855835D+01
              MO Center= -1.3D+00, -5.6D-01,  4.3D-02, r^2= 4.7D-01
   Bfn.  Coefficient  Atom+Function         Bfn.  Coefficient  Atom+Function  
  ----- ------------  ---------------      ----- ------------  ---------------
   115      0.939521  3 O  s                170     -0.212815  4 O  s          
    60     -0.162487  2 O  s                117      0.059648  3 O  s          
   118     -0.051973  3 O  s          

 Vector    5  Occ=1.000000D+00  E=-7.628310D+00
              MO Center= -6.6D-03,  4.0D-03, -5.9D-02, r^2= 7.7D-02
   Bfn.  Coefficient  Atom+Function         Bfn.  Coefficient  Atom+Function  
  ----- ------------  ---------------      ----- ------------  ---------------
     2      0.904196  1 S  s                  4      0.109520  1 S  s          
     3     -0.039308  1 S  s          

 Vector    6  Occ=1.000000D+00  E=-5.649788D+00
              MO Center= -5.8D-03,  3.6D-03, -6.0D-02, r^2= 6.9D-02
   Bfn.  Coefficient  Atom+Function         Bfn.  Coefficient  Atom+Function  
  ----- ------------  ---------------      ----- ------------  ---------------
     8      0.865393  1 S  py                 9     -0.522880  1 S  pz         
     7     -0.365770  1 S  px                11      0.188995  1 S  py         
    12     -0.114192  1 S  pz                10     -0.079886  1 S  px         
    41     -0.070182  1 S  fxxy              48     -0.068148  1 S  fyzz       
    46     -0.065398  1 S  fyyy              63     -0.052109  2 O  s          

 Vector    7  Occ=1.000000D+00  E=-5.649787D+00
              MO Center= -5.8D-03,  3.6D-03, -6.0D-02, r^2= 6.9D-02
   Bfn.  Coefficient  Atom+Function         Bfn.  Coefficient  Atom+Function  
  ----- ------------  ---------------      ----- ------------  ---------------
     7      0.860258  1 S  px                 8      0.558480  1 S  py         
     9      0.322544  1 S  pz                10      0.187719  1 S  px         
    11      0.121951  1 S  py                12      0.070528  1 S  pz         
    43     -0.069034  1 S  fxyy              45     -0.067448  1 S  fxzz       
    40     -0.065299  1 S  fxxx             118      0.059056  3 O  s          

 Vector    8  Occ=1.000000D+00  E=-5.648499D+00
              MO Center= -5.0D-03,  3.1D-03, -6.2D-02, r^2= 6.9D-02
   Bfn.  Coefficient  Atom+Function         Bfn.  Coefficient  Atom+Function  
  ----- ------------  ---------------      ----- ------------  ---------------
     9      0.856564  1 S  pz                 7     -0.515518  1 S  px         
     8      0.299659  1 S  py                12      0.137147  1 S  pz         
     5      0.088646  1 S  s                 10     -0.082402  1 S  px         
    42     -0.053167  1 S  fxxz              47     -0.053391  1 S  fyyz       
    49     -0.053225  1 S  fzzz              63     -0.048578  2 O  s          

 Vector    9  Occ=1.000000D+00  E=-7.908648D-01
              MO Center= -1.9D-01,  1.1D-01,  2.5D-01, r^2= 1.6D+00
   Bfn.  Coefficient  Atom+Function         Bfn.  Coefficient  Atom+Function  
  ----- ------------  ---------------      ----- ------------  ---------------
     3      0.345802  1 S  s                 61      0.217012  2 O  s          
   116      0.216517  3 O  s                171      0.217019  4 O  s          
    63      0.168746  2 O  s                118      0.168363  3 O  s          
   173      0.168756  4 O  s                 62      0.062497  2 O  s          
   117      0.062366  3 O  s                172      0.062498  4 O  s          

 Vector   10  Occ=1.000000D+00  E=-6.787160D-01
              MO Center=  2.4D-01,  4.6D-01,  4.8D-01, r^2= 1.7D+00
   Bfn.  Coefficient  Atom+Function         Bfn.  Coefficient  Atom+Function  
  ----- ------------  ---------------      ----- ------------  ---------------
    61      0.344359  2 O  s                171     -0.342328  4 O  s          
    63      0.252217  2 O  s                173     -0.250734  4 O  s          
    14      0.104963  1 S  py                62      0.096707  2 O  s          
   172     -0.096135  4 O  s                  8     -0.079850  1 S  py         
    15     -0.065474  1 S  pz                64      0.063414  2 O  s          

 Vector   11  Occ=1.000000D+00  E=-6.786278D-01
              MO Center= -7.0D-01, -2.0D-01,  1.5D-01, r^2= 1.7D+00
   Bfn.  Coefficient  Atom+Function         Bfn.  Coefficient  Atom+Function  
  ----- ------------  ---------------      ----- ------------  ---------------
   116      0.396687  3 O  s                118      0.290583  3 O  s          
   171     -0.199776  4 O  s                 61     -0.196264  2 O  s          
   173     -0.146319  4 O  s                 63     -0.143744  2 O  s          
   117      0.111414  3 O  s                 13     -0.104820  1 S  px         
     7      0.079744  1 S  px               119      0.072988  3 O  s          

 Vector   12  Occ=1.000000D+00  E=-3.604534D-01
              MO Center= -1.3D-01,  7.8D-02,  1.5D-01, r^2= 2.5D+00
   Bfn.  Coefficient  Atom+Function         Bfn.  Coefficient  Atom+Function  
  ----- ------------  ---------------      ----- ------------  ---------------
     3      0.461650  1 S  s                  5      0.298081  1 S  s          
    61     -0.205987  2 O  s                116     -0.205929  3 O  s          
   171     -0.205985  4 O  s                 63     -0.204510  2 O  s          
   118     -0.204463  3 O  s                173     -0.204514  4 O  s          
     6      0.115907  1 S  s                 66     -0.081488  2 O  py         

 Vector   13  Occ=1.000000D+00  E=-2.133420D-01
              MO Center= -6.5D-01, -6.6D-02,  1.7D-01, r^2= 2.5D+00
   Bfn.  Coefficient  Atom+Function         Bfn.  Coefficient  Atom+Function  
  ----- ------------  ---------------      ----- ------------  ---------------
   120      0.207392  3 O  px               123      0.205871  3 O  px         
    13     -0.177097  1 S  px               118     -0.168190  3 O  s          
   116     -0.165615  3 O  s                 14     -0.138060  1 S  py         
   126      0.115576  3 O  px                66      0.113514  2 O  py         
    69      0.112432  2 O  py                 7      0.106666  1 S  px         

 Vector   14  Occ=1.000000D+00  E=-2.133352D-01
              MO Center=  1.5D-01,  3.5D-01,  5.1D-01, r^2= 2.5D+00
   Bfn.  Coefficient  Atom+Function         Bfn.  Coefficient  Atom+Function  
  ----- ------------  ---------------      ----- ------------  ---------------
    66     -0.181531  2 O  py                69     -0.179912  2 O  py         
   177      0.180349  4 O  pz               180      0.179460  4 O  pz         
    14      0.174117  1 S  py               173      0.151234  4 O  s          
   171      0.148924  4 O  s                 63     -0.139961  2 O  s          
    61     -0.137838  2 O  s                 15     -0.119013  1 S  pz         

 Vector   15  Occ=1.000000D+00  E=-2.112840D-01
              MO Center= -9.5D-02,  5.6D-02,  8.9D-02, r^2= 2.2D+00
   Bfn.  Coefficient  Atom+Function         Bfn.  Coefficient  Atom+Function  
  ----- ------------  ---------------      ----- ------------  ---------------
    15      0.203103  1 S  pz                 5     -0.171448  1 S  s          
    12      0.131830  1 S  pz                13     -0.122236  1 S  px         
   175     -0.120826  4 O  px               178     -0.119723  4 O  px         
     9     -0.107717  1 S  pz                67      0.101072  2 O  pz         
    70      0.101237  2 O  pz               122      0.100985  3 O  pz         

 Vector   16  Occ=1.000000D+00  E=-9.983625D-02
              MO Center= -8.8D-02,  2.8D-01,  4.6D-01, r^2= 2.6D+00
   Bfn.  Coefficient  Atom+Function         Bfn.  Coefficient  Atom+Function  
  ----- ------------  ---------------      ----- ------------  ---------------
   179      0.195849  4 O  py               176      0.194798  4 O  py         
    70      0.170299  2 O  pz                67      0.169375  2 O  pz         
   125     -0.139981  3 O  pz               122     -0.138360  3 O  pz         
   182      0.133003  4 O  py                65      0.128932  2 O  px         
    68      0.128785  2 O  px                73      0.114103  2 O  pz         

 Vector   17  Occ=1.000000D+00  E=-9.980120D-02
              MO Center= -4.7D-01,  4.0D-02,  3.2D-01, r^2= 2.6D+00
   Bfn.  Coefficient  Atom+Function         Bfn.  Coefficient  Atom+Function  
  ----- ------------  ---------------      ----- ------------  ---------------
   121     -0.184641  3 O  py               124     -0.184852  3 O  py         
    65      0.177571  2 O  px                68      0.178170  2 O  px         
   177      0.144588  4 O  pz               180      0.142889  4 O  pz         
   127     -0.122306  3 O  py                71      0.117670  2 O  px         
   178     -0.115642  4 O  px               122      0.112909  3 O  pz         

 Vector   18  Occ=1.000000D+00  E=-6.600633D-02
              MO Center=  1.2D-01,  4.1D-01,  4.3D-01, r^2= 2.7D+00
   Bfn.  Coefficient  Atom+Function         Bfn.  Coefficient  Atom+Function  
  ----- ------------  ---------------      ----- ------------  ---------------
    70      0.227211  2 O  pz                67      0.224653  2 O  pz         
    73      0.180001  2 O  pz               175      0.175337  4 O  px         
   176     -0.174619  4 O  py               178      0.175174  4 O  px         
   179     -0.174599  4 O  py               182     -0.123290  4 O  py         
    66     -0.116453  2 O  py                69     -0.112306  2 O  py         

 Vector   19  Occ=1.000000D+00  E=-6.598649D-02
              MO Center= -5.8D-01, -1.4D-01,  1.9D-01, r^2= 2.7D+00
   Bfn.  Coefficient  Atom+Function         Bfn.  Coefficient  Atom+Function  
  ----- ------------  ---------------      ----- ------------  ---------------
   125      0.227943  3 O  pz               122      0.225079  3 O  pz         
   128      0.178975  3 O  pz               175      0.179761  4 O  px         
   178      0.179737  4 O  px               121      0.165083  3 O  py         
   124      0.164531  3 O  py                68      0.146604  2 O  px         
    65      0.145539  2 O  px               181      0.125790  4 O  px         

 Vector   20  Occ=1.000000D+00  E=-3.294153D-02
              MO Center= -1.4D-01,  7.9D-02,  1.6D-01, r^2= 2.7D+00
   Bfn.  Coefficient  Atom+Function         Bfn.  Coefficient  Atom+Function  
  ----- ------------  ---------------      ----- ------------  ---------------
     6      0.338528  1 S  s                  5      0.323044  1 S  s          
   177      0.182880  4 O  pz               180      0.183496  4 O  pz         
     3      0.177303  1 S  s                183      0.154999  4 O  pz         
    70      0.145910  2 O  pz               125      0.145914  3 O  pz         
    67      0.143818  2 O  pz               122      0.143821  3 O  pz         

 Vector   21  Occ=1.000000D+00  E=-3.094100D-02
              MO Center= -2.8D-01,  1.6D-01,  3.9D-01, r^2= 2.8D+00
   Bfn.  Coefficient  Atom+Function         Bfn.  Coefficient  Atom+Function  
  ----- ------------  ---------------      ----- ------------  ---------------
    68      0.203616  2 O  px               179     -0.203678  4 O  py         
    65      0.200703  2 O  px               176     -0.200767  4 O  py         
   124      0.185747  3 O  py               121      0.183097  3 O  py         
    71      0.166045  2 O  px               182     -0.166086  4 O  py         
   127      0.151451  3 O  py               178     -0.117876  4 O  px         

 Vector   22  Occ=0.000000D+00  E= 1.450929D-01
              MO Center=  1.1D+00, -6.3D-01, -1.9D+00, r^2= 7.8D+00
   Bfn.  Coefficient  Atom+Function         Bfn.  Coefficient  Atom+Function  
  ----- ------------  ---------------      ----- ------------  ---------------
     6      2.829593  1 S  s                  5      1.557799  1 S  s          
    21     -1.292670  1 S  pz                19      0.781386  1 S  px         
    18      0.765155  1 S  pz                39     -0.482301  1 S  dzz        
   186      0.476574  4 O  pz                16     -0.460790  1 S  px         
    20     -0.450615  1 S  py                12      0.413021  1 S  pz         

 Vector   23  Occ=0.000000D+00  E= 1.531755D-01
              MO Center= -1.2D-02, -2.5D-01, -4.1D-01, r^2= 1.6D+01
   Bfn.  Coefficient  Atom+Function         Bfn.  Coefficient  Atom+Function  
  ----- ------------  ---------------      ----- ------------  ---------------
   119      3.227149  3 O  s                 19      1.902118  1 S  px         
    16      1.753091  1 S  px               174     -1.737107  4 O  s          
    64     -1.493432  2 O  s                 20      1.205555  1 S  py         
    17      1.110371  1 S  py                21      0.728776  1 S  pz         
    18      0.670448  1 S  pz               129      0.618598  3 O  px         

 Vector   24  Occ=0.000000D+00  E= 1.531776D-01
              MO Center=  3.6D-01,  4.9D-02, -3.0D-01, r^2= 1.6D+01
   Bfn.  Coefficient  Atom+Function         Bfn.  Coefficient  Atom+Function  
  ----- ------------  ---------------      ----- ------------  ---------------
    64      2.867024  2 O  s                174     -2.725868  4 O  s          
    20     -1.921116  1 S  py                17     -1.770370  1 S  py         
    21      1.141290  1 S  pz                18      1.051785  1 S  pz         
    19      0.780292  1 S  px                16      0.719042  1 S  px         
    75     -0.586827  2 O  py               186      0.528715  4 O  pz         

 Vector   25  Occ=0.000000D+00  E= 1.559156D-01
              MO Center= -8.4D-01,  4.8D-01,  1.3D+00, r^2= 1.4D+01
   Bfn.  Coefficient  Atom+Function         Bfn.  Coefficient  Atom+Function  
  ----- ------------  ---------------      ----- ------------  ---------------
     6      7.437650  1 S  s                 64     -3.820405  2 O  s          
   119     -3.820008  3 O  s                174     -3.820732  4 O  s          
    18      1.811794  1 S  pz                 5      1.597824  1 S  s          
    21      1.386904  1 S  pz                16     -1.093029  1 S  px         
    75      1.093625  2 O  py               129     -0.937770  3 O  px         

 Vector   26  Occ=0.000000D+00  E= 2.189708D-01
              MO Center= -6.1D-02,  9.8D-02,  1.1D-01, r^2= 6.7D+00
   Bfn.  Coefficient  Atom+Function         Bfn.  Coefficient  Atom+Function  
  ----- ------------  ---------------      ----- ------------  ---------------
   119      3.671474  3 O  s                174     -2.114730  4 O  s          
    16      2.022965  1 S  px                64     -1.551904  2 O  s          
   129      1.374413  3 O  px                17      1.169358  1 S  py         
    35     -1.130447  1 S  dxy               18      0.815282  1 S  pz         
    34     -0.797799  1 S  dxx              186      0.719481  4 O  pz         

 Vector   27  Occ=0.000000D+00  E= 2.189863D-01
              MO Center= -1.4D-01,  2.1D-02,  8.9D-02, r^2= 6.7D+00
   Bfn.  Coefficient  Atom+Function         Bfn.  Coefficient  Atom+Function  
  ----- ------------  ---------------      ----- ------------  ---------------
    64      3.345419  2 O  s                174     -3.020893  4 O  s          
    17     -2.069093  1 S  py                75     -1.324656  2 O  py         
    18      1.161966  1 S  pz               186      1.027630  4 O  pz         
    37     -0.942829  1 S  dyy               36      0.759201  1 S  dxz        
    16      0.728817  1 S  px                39      0.647576  1 S  dzz        

 Vector   28  Occ=0.000000D+00  E= 2.276150D-01
              MO Center= -6.7D-01, -2.7D-01,  8.6D-02, r^2= 1.4D+01
   Bfn.  Coefficient  Atom+Function         Bfn.  Coefficient  Atom+Function  
  ----- ------------  ---------------      ----- ------------  ---------------
    16      4.042492  1 S  px               119      2.785971  3 O  s          
    17      2.601273  1 S  py               129      2.336964  3 O  px         
    18      1.529569  1 S  pz               174     -1.483071  4 O  s          
    64     -1.311791  2 O  s                 75      1.210366  2 O  py         
    19     -1.149496  1 S  px               186      1.109972  4 O  pz         

 Vector   29  Occ=0.000000D+00  E= 2.276217D-01
              MO Center=  2.9D-01,  4.8D-01,  4.0D-01, r^2= 1.4D+01
   Bfn.  Coefficient  Atom+Function         Bfn.  Coefficient  Atom+Function  
  ----- ------------  ---------------      ----- ------------  ---------------
    17      4.071375  1 S  py                64     -2.461832  2 O  s          
    18     -2.444102  1 S  pz               174      2.363227  4 O  s          
    75      2.253335  2 O  py               186     -1.772681  4 O  pz         
    16     -1.695145  1 S  px                20     -1.158692  1 S  py         
    51     -1.097389  1 S  fxxy              58     -1.099795  1 S  fyzz       

 Vector   30  Occ=0.000000D+00  E= 2.402620D-01
              MO Center= -5.2D-01,  3.1D-01,  8.0D-01, r^2= 9.4D+00
   Bfn.  Coefficient  Atom+Function         Bfn.  Coefficient  Atom+Function  
  ----- ------------  ---------------      ----- ------------  ---------------
     6      4.081754  1 S  s                  5     -2.201423  1 S  s          
    18     -1.797023  1 S  pz                16      1.078394  1 S  px         
    39     -1.057554  1 S  dzz               34     -0.913616  1 S  dxx        
    37     -0.857916  1 S  dyy               64     -0.777978  2 O  s          
   119     -0.776632  3 O  s                174     -0.778050  4 O  s          

 Vector   31  Occ=0.000000D+00  E= 2.511463D-01
              MO Center= -2.9D-01,  1.3D-01,  3.6D-01, r^2= 1.3D+01
   Bfn.  Coefficient  Atom+Function         Bfn.  Coefficient  Atom+Function  
  ----- ------------  ---------------      ----- ------------  ---------------
    38      1.622313  1 S  dyz               16      1.522479  1 S  px         
   185     -1.177024  4 O  py                36      1.068615  1 S  dxz        
    76     -0.991516  2 O  pz                17      0.902699  1 S  py         
    19      0.857763  1 S  px               131      0.842994  3 O  pz         
    74     -0.828424  2 O  px                35      0.817730  1 S  dxy        

 Vector   32  Occ=0.000000D+00  E= 2.511477D-01
              MO Center= -2.4D-01,  1.7D-01,  3.8D-01, r^2= 1.3D+01
   Bfn.  Coefficient  Atom+Function         Bfn.  Coefficient  Atom+Function  
  ----- ------------  ---------------      ----- ------------  ---------------
    17      1.544972  1 S  py                35     -1.446423  1 S  dxy        
    38      1.226766  1 S  dyz              130     -1.033547  3 O  py         
    74      0.978079  2 O  px               184     -0.915202  4 O  px         
    18     -0.882390  1 S  pz                20      0.871684  1 S  py         
   131      0.734650  3 O  pz                39     -0.657579  1 S  dzz        

 Vector   33  Occ=0.000000D+00  E= 2.751337D-01
              MO Center=  1.5D-01, -8.5D-02, -3.1D-01, r^2= 1.4D+01
   Bfn.  Coefficient  Atom+Function         Bfn.  Coefficient  Atom+Function  
  ----- ------------  ---------------      ----- ------------  ---------------
     5      8.452591  1 S  s                 37      2.674456  1 S  dyy        
    34      2.441860  1 S  dxx               64     -2.322345  2 O  s          
   119     -2.320554  3 O  s                174     -2.322384  4 O  s          
   186      2.323294  4 O  pz                21     -2.094115  1 S  pz         
     6     -1.963369  1 S  s                129     -1.963263  3 O  px         

 Vector   34  Occ=0.000000D+00  E= 2.847593D-01
              MO Center= -3.8D-01,  2.2D-01,  5.7D-01, r^2= 7.0D+00
   Bfn.  Coefficient  Atom+Function         Bfn.  Coefficient  Atom+Function  
  ----- ------------  ---------------      ----- ------------  ---------------
    64      3.539101  2 O  s                119      3.534047  3 O  s          
   174      3.539280  4 O  s                  6     -2.914830  1 S  s          
    18     -2.441976  1 S  pz                 5     -1.851465  1 S  s          
    37     -1.707608  1 S  dyy               34     -1.692113  1 S  dxx        
    39     -1.657258  1 S  dzz               16      1.472392  1 S  px         

 Vector   35  Occ=0.000000D+00  E= 3.095366D-01
              MO Center= -2.8D-01,  1.6D-01,  4.0D-01, r^2= 1.4D+01
   Bfn.  Coefficient  Atom+Function         Bfn.  Coefficient  Atom+Function  
  ----- ------------  ---------------      ----- ------------  ---------------
    74      1.582395  2 O  px               185     -1.582563  4 O  py         
   130      1.442217  3 O  py               184     -0.916204  4 O  px         
    76      0.905684  2 O  pz               131     -0.905433  3 O  pz         
   129     -0.666152  3 O  px                71     -0.369325  2 O  px         
   182      0.369374  4 O  py               127     -0.336920  3 O  py         

 Vector   36  Occ=0.000000D+00  E= 3.167811D-01
              MO Center= -3.2D-01,  6.3D-02,  3.1D-01, r^2= 1.4D+01
   Bfn.  Coefficient  Atom+Function         Bfn.  Coefficient  Atom+Function  
  ----- ------------  ---------------      ----- ------------  ---------------
    19      2.770686  1 S  px               184     -2.057616  4 O  px         
    74     -2.022643  2 O  px               131     -1.887967  3 O  pz         
    20      1.617160  1 S  py                16      1.459347  1 S  px         
   130     -1.325072  3 O  py                21      1.107613  1 S  pz         
    17      0.851400  1 S  py               185     -0.788804  4 O  py         

 Vector   37  Occ=0.000000D+00  E= 3.167834D-01
              MO Center= -1.6D-01,  2.2D-01,  3.5D-01, r^2= 1.4D+01
   Bfn.  Coefficient  Atom+Function         Bfn.  Coefficient  Atom+Function  
  ----- ------------  ---------------      ----- ------------  ---------------
    20      2.821200  1 S  py                76      2.076196  2 O  pz         
   185     -2.029873  4 O  py               130     -1.761100  3 O  py         
    21     -1.593954  1 S  pz                17      1.485996  1 S  py         
    75     -1.157167  2 O  py               184      1.131061  4 O  px         
    19     -1.009444  1 S  px               131      0.878553  3 O  pz         

 Vector   38  Occ=0.000000D+00  E= 3.481315D-01
              MO Center=  1.4D-02, -8.2D-03, -9.4D-02, r^2= 9.1D+00
   Bfn.  Coefficient  Atom+Function         Bfn.  Coefficient  Atom+Function  
  ----- ------------  ---------------      ----- ------------  ---------------
    64     -5.470332  2 O  s                119     -5.469903  3 O  s          
   174     -5.470530  4 O  s                  6      4.982414  1 S  s          
    39      2.513107  1 S  dzz               34      2.106270  1 S  dxx        
    37      1.950850  1 S  dyy                5     -1.644962  1 S  s          
    21      1.553882  1 S  pz                18      1.434443  1 S  pz         

 Vector   39  Occ=0.000000D+00  E= 3.763686D-01
              MO Center= -9.8D-01, -2.2D-01,  2.1D-01, r^2= 1.1D+01
   Bfn.  Coefficient  Atom+Function         Bfn.  Coefficient  Atom+Function  
  ----- ------------  ---------------      ----- ------------  ---------------
   119      9.963210  3 O  s                 64     -5.204380  2 O  s          
    16      4.881347  1 S  px               174     -4.757741  4 O  s          
    17      3.535374  1 S  py               129      2.502470  3 O  px         
    18      1.711975  1 S  pz                75      1.548379  2 O  py         
   130      1.477705  3 O  py               184      1.094375  4 O  px         

 Vector   40  Occ=0.000000D+00  E= 3.763797D-01
              MO Center=  3.3D-01,  6.0D-01,  7.2D-01, r^2= 1.1D+01
   Bfn.  Coefficient  Atom+Function         Bfn.  Coefficient  Atom+Function  
  ----- ------------  ---------------      ----- ------------  ---------------
   174     -8.760073  4 O  s                 64      8.502408  2 O  s          
    17     -4.853883  1 S  py                18      3.149151  1 S  pz         
    75     -2.461018  2 O  py                16      2.410627  1 S  px         
   186      1.766450  4 O  pz               184      1.530351  4 O  px         
   185     -1.140875  4 O  py                72     -0.918313  2 O  py         

 Vector   41  Occ=0.000000D+00  E= 3.926039D-01
              MO Center= -1.2D-01,  7.2D-02,  1.3D-01, r^2= 1.0D+01
   Bfn.  Coefficient  Atom+Function         Bfn.  Coefficient  Atom+Function  
  ----- ------------  ---------------      ----- ------------  ---------------
     6     14.313009  1 S  s                 64     -5.083839  2 O  s          
   119     -5.076877  3 O  s                174     -5.083921  4 O  s          
    18      3.026239  1 S  pz                39     -2.202841  1 S  dzz        
    16     -1.823174  1 S  px                34     -1.775778  1 S  dxx        
    37     -1.614304  1 S  dyy               57     -1.329510  1 S  fyyz       

 Vector   42  Occ=0.000000D+00  E= 4.317435D-01
              MO Center=  5.2D-01,  1.4D-01, -2.9D-01, r^2= 7.4D+00
   Bfn.  Coefficient  Atom+Function         Bfn.  Coefficient  Atom+Function  
  ----- ------------  ---------------      ----- ------------  ---------------
   118      3.445665  3 O  s                 35     -2.368658  1 S  dxy        
    50      2.340483  1 S  fxxx              34     -2.217356  1 S  dxx        
    55      2.153947  1 S  fxzz             126      2.047547  3 O  px         
    53      1.898371  1 S  fxyy             173     -1.819616  4 O  s          
    36      1.807068  1 S  dxz               51      1.728615  1 S  fxxy       

 Vector   43  Occ=0.000000D+00  E= 4.317723D-01
              MO Center= -1.2D-01, -3.7D-01, -5.1D-01, r^2= 7.4D+00
   Bfn.  Coefficient  Atom+Function         Bfn.  Coefficient  Atom+Function  
  ----- ------------  ---------------      ----- ------------  ---------------
    63      3.041343  2 O  s                173     -2.929373  4 O  s          
    56     -2.354215  1 S  fyyy              37     -2.212311  1 S  dyy        
    58     -2.146366  1 S  fyzz              72     -2.064152  2 O  py         
    51     -1.941621  1 S  fxxy              39      1.924167  1 S  dzz        
    38     -1.765730  1 S  dyz               36      1.679412  1 S  dxz        

 Vector   44  Occ=0.000000D+00  E= 4.591548D-01
              MO Center= -2.2D-01,  1.3D-01,  3.0D-01, r^2= 7.0D+00
   Bfn.  Coefficient  Atom+Function         Bfn.  Coefficient  Atom+Function  
  ----- ------------  ---------------      ----- ------------  ---------------
     5      6.756573  1 S  s                 18     -3.079759  1 S  pz         
    37      3.068498  1 S  dyy               36      2.594953  1 S  dxz        
    34      2.546668  1 S  dxx               63     -2.077626  2 O  s          
   118     -2.073160  3 O  s                173     -2.078389  4 O  s          
    52      2.002954  1 S  fxxz               6     -1.982069  1 S  s          

 Vector   45  Occ=0.000000D+00  E= 4.645019D-01
              MO Center=  2.4D-01, -4.2D-02, -3.0D-01, r^2= 6.9D+00
   Bfn.  Coefficient  Atom+Function         Bfn.  Coefficient  Atom+Function  
  ----- ------------  ---------------      ----- ------------  ---------------
   174      4.743918  4 O  s                 64     -4.625044  2 O  s          
    17      4.204913  1 S  py                35      3.309176  1 S  dxy        
    36     -2.988204  1 S  dxz               18     -2.716812  1 S  pz         
    37      2.381015  1 S  dyy               16     -2.066479  1 S  px         
    34     -1.970835  1 S  dxx               75      1.543430  2 O  py         

 Vector   46  Occ=0.000000D+00  E= 4.645243D-01
              MO Center=  8.0D-02, -1.4D-01, -3.7D-01, r^2= 6.9D+00
   Bfn.  Coefficient  Atom+Function         Bfn.  Coefficient  Atom+Function  
  ----- ------------  ---------------      ----- ------------  ---------------
   119      5.406384  3 O  s                 35     -4.324674  1 S  dxy        
    16      4.226103  1 S  px                38     -4.028783  1 S  dyz        
    17      3.041232  1 S  py                64     -2.809093  2 O  s          
   174     -2.601323  4 O  s                129      1.741073  3 O  px         
    58     -1.543380  1 S  fyzz              18      1.491902  1 S  pz         

 Vector   47  Occ=0.000000D+00  E= 5.261045D-01
              MO Center= -4.3D-01,  2.5D-01,  6.5D-01, r^2= 9.1D+00
   Bfn.  Coefficient  Atom+Function         Bfn.  Coefficient  Atom+Function  
  ----- ------------  ---------------      ----- ------------  ---------------
     5     11.665379  1 S  s                 18      8.413666  1 S  pz         
    64     -8.176306  2 O  s                119     -8.171723  3 O  s          
   174     -8.175834  4 O  s                 37      6.009987  1 S  dyy        
    34      5.640461  1 S  dxx               16     -5.073229  1 S  px         
    39      4.673579  1 S  dzz                6      3.347295  1 S  s          

 Vector   48  Occ=0.000000D+00  E= 5.633179D-01
              MO Center= -2.9D-01,  2.3D-01,  5.3D-01, r^2= 8.4D+00
   Bfn.  Coefficient  Atom+Function         Bfn.  Coefficient  Atom+Function  
  ----- ------------  ---------------      ----- ------------  ---------------
    17     12.436957  1 S  py                18     -8.511402  1 S  pz         
   174      7.085283  4 O  s                 16     -6.909380  1 S  px         
    64     -6.551941  2 O  s                 39     -2.746495  1 S  dzz        
    38      2.618931  1 S  dyz               56     -2.544572  1 S  fyyy       
    58     -2.466090  1 S  fyzz              51     -2.441422  1 S  fxxy       

 Vector   49  Occ=0.000000D+00  E= 5.633249D-01
              MO Center= -4.1D-01,  1.7D-01,  4.8D-01, r^2= 8.4D+00
   Bfn.  Coefficient  Atom+Function         Bfn.  Coefficient  Atom+Function  
  ----- ------------  ---------------      ----- ------------  ---------------
    16     12.637120  1 S  px                17      9.880270  1 S  py         
   119      7.868760  3 O  s                 64     -4.396219  2 O  s          
    18      4.177688  1 S  pz               174     -3.473095  4 O  s          
    34     -2.799502  1 S  dxx               36      2.617893  1 S  dxz        
    53     -2.625874  1 S  fxyy              50     -2.540260  1 S  fxxx       

 Vector   50  Occ=0.000000D+00  E= 6.231371D-01
              MO Center=  3.3D-02,  7.4D-02,  2.1D-02, r^2= 5.6D+00
   Bfn.  Coefficient  Atom+Function         Bfn.  Coefficient  Atom+Function  
  ----- ------------  ---------------      ----- ------------  ---------------
    35      3.177159  1 S  dxy               51     -2.240167  1 S  fxxy       
    38     -2.058665  1 S  dyz               58     -1.870945  1 S  fyzz       
    64     -1.768562  2 O  s                174      1.759308  4 O  s          
   181      1.649291  4 O  px                34     -1.572120  1 S  dxx        
    72     -1.498038  2 O  py                54      1.389930  1 S  fxyz       

 Vector   51  Occ=0.000000D+00  E= 6.231471D-01
              MO Center= -1.1D-01, -2.8D-02, -3.1D-02, r^2= 5.6D+00
   Bfn.  Coefficient  Atom+Function         Bfn.  Coefficient  Atom+Function  
  ----- ------------  ---------------      ----- ------------  ---------------
    38      3.682989  1 S  dyz               58      2.367841  1 S  fyzz       
    35      2.082183  1 S  dxy               36      2.039679  1 S  dxz        
   119     -2.037939  3 O  s                 55      1.862759  1 S  fxzz       
    53      1.664382  1 S  fxyy             182     -1.655655  4 O  py         
    50      1.361949  1 S  fxxx             126      1.288953  3 O  px         

 Vector   52  Occ=0.000000D+00  E= 6.616221D-01
              MO Center= -1.2D-01,  7.1D-02,  1.3D-01, r^2= 5.2D+00
   Bfn.  Coefficient  Atom+Function         Bfn.  Coefficient  Atom+Function  
  ----- ------------  ---------------      ----- ------------  ---------------
     5     12.185307  1 S  s                 63     -3.504688  2 O  s          
   118     -3.501808  3 O  s                173     -3.504824  4 O  s          
    18     -3.375846  1 S  pz                39     -3.071782  1 S  dzz        
    72      2.880359  2 O  py                64      2.825633  2 O  s          
   119      2.823950  3 O  s                183      2.833432  4 O  pz         

 Vector   53  Occ=0.000000D+00  E= 6.954589D-01
              MO Center=  6.9D-02, -3.9D-02, -1.8D-01, r^2= 6.0D+00
   Bfn.  Coefficient  Atom+Function         Bfn.  Coefficient  Atom+Function  
  ----- ------------  ---------------      ----- ------------  ---------------
     5      6.718768  1 S  s                 36      2.364581  1 S  dxz        
    63     -2.088304  2 O  s                118     -2.087457  3 O  s          
   173     -2.088208  4 O  s                 18     -1.879908  1 S  pz         
    72      1.665493  2 O  py                 6     -1.493331  1 S  s          
   126     -1.475596  3 O  px                52      1.376589  1 S  fxxz       

 Vector   54  Occ=0.000000D+00  E= 7.328777D-01
              MO Center= -1.5D-01,  2.7D-01,  4.7D-01, r^2= 5.6D+00
   Bfn.  Coefficient  Atom+Function         Bfn.  Coefficient  Atom+Function  
  ----- ------------  ---------------      ----- ------------  ---------------
   118     -3.289234  3 O  s                 16      3.165350  1 S  px         
   119      2.903250  3 O  s                 50     -2.643030  1 S  fxxx       
    51     -2.290195  1 S  fxxy              17      2.225041  1 S  py         
    55     -2.209593  1 S  fxzz              53     -1.837859  1 S  fxyy       
    56     -1.790636  1 S  fyyy              63      1.674449  2 O  s          

 Vector   55  Occ=0.000000D+00  E= 7.329632D-01
              MO Center= -4.4D-01,  7.3D-02,  3.6D-01, r^2= 5.6D+00
   Bfn.  Coefficient  Atom+Function         Bfn.  Coefficient  Atom+Function  
  ----- ------------  ---------------      ----- ------------  ---------------
    17      3.157421  1 S  py               173     -2.867710  4 O  s          
    63      2.836025  2 O  s                 56     -2.654632  1 S  fyyy       
   174      2.531395  4 O  s                 64     -2.503407  2 O  s          
    58     -2.222098  1 S  fyzz              18     -2.006631  1 S  pz         
    55      1.855701  1 S  fxzz              72     -1.781498  2 O  py         

 Vector   56  Occ=0.000000D+00  E= 7.935810D-01
              MO Center= -3.8D-01,  2.2D-01,  5.6D-01, r^2= 5.5D+00
   Bfn.  Coefficient  Atom+Function         Bfn.  Coefficient  Atom+Function  
  ----- ------------  ---------------      ----- ------------  ---------------
   203      1.442452  4 O  dyz               53     -1.116053  1 S  fxyy       
   145      1.068739  3 O  dxy               90     -0.979407  2 O  dxy        
   201      0.834890  4 O  dxz              148     -0.778070  3 O  dyz        
    93     -0.664415  2 O  dyz               54      0.655049  1 S  fxyz       
    89      0.574494  2 O  dxx               52      0.570696  1 S  fxxz       

 Vector   57  Occ=0.000000D+00  E= 7.943880D-01
              MO Center= -2.0D-01,  1.2D-01,  2.6D-01, r^2= 7.0D+00
   Bfn.  Coefficient  Atom+Function         Bfn.  Coefficient  Atom+Function  
  ----- ------------  ---------------      ----- ------------  ---------------
     5      4.362933  1 S  s                  6     -4.069753  1 S  s          
    64      2.264125  2 O  s                119      2.259711  3 O  s          
   174      2.263844  4 O  s                183      1.546662  4 O  pz         
    63     -1.441137  2 O  s                118     -1.439594  3 O  s          
   173     -1.441235  4 O  s                 12      1.299492  1 S  pz         

 Vector   58  Occ=0.000000D+00  E= 7.985188D-01
              MO Center= -1.8D-01,  1.0D-01,  2.2D-01, r^2= 7.5D+00
   Bfn.  Coefficient  Atom+Function         Bfn.  Coefficient  Atom+Function  
  ----- ------------  ---------------      ----- ------------  ---------------
    71      1.103359  2 O  px               182     -1.103932  4 O  py         
   127      1.007211  3 O  py                74     -0.994067  2 O  px         
   185      0.994780  4 O  py               130     -0.905858  3 O  py         
    90      0.681807  2 O  dxy              181     -0.638212  4 O  px         
    73      0.633132  2 O  pz               128     -0.632460  3 O  pz         

 Vector   59  Occ=0.000000D+00  E= 8.062322D-01
              MO Center= -8.4D-01, -2.3D-01, -6.9D-02, r^2= 6.6D+00
   Bfn.  Coefficient  Atom+Function         Bfn.  Coefficient  Atom+Function  
  ----- ------------  ---------------      ----- ------------  ---------------
   119      4.066178  3 O  s                 16      3.375249  1 S  px         
    17      2.689970  1 S  py                64     -2.312715  2 O  s          
   174     -1.761347  4 O  s                128      1.661448  3 O  pz         
    50     -1.421529  1 S  fxxx              51     -1.327513  1 S  fxxy       
    19      1.232756  1 S  px                73     -1.187617  2 O  pz         

 Vector   60  Occ=0.000000D+00  E= 8.062532D-01
              MO Center=  5.0D-01,  4.3D-01,  5.0D-01, r^2= 6.6D+00
   Bfn.  Coefficient  Atom+Function         Bfn.  Coefficient  Atom+Function  
  ----- ------------  ---------------      ----- ------------  ---------------
   174      3.688746  4 O  s                 64     -3.370924  2 O  s          
    17      3.317592  1 S  py                18     -2.300551  1 S  pz         
    16     -1.893052  1 S  px                56     -1.383441  1 S  fyyy       
   181     -1.299492  4 O  px                20      1.210650  1 S  py         
    58     -1.181179  1 S  fyzz              73     -1.175463  2 O  pz         

 Vector   61  Occ=0.000000D+00  E= 8.159070D-01
              MO Center= -5.7D-01,  1.5D-01,  5.5D-01, r^2= 7.0D+00
   Bfn.  Coefficient  Atom+Function         Bfn.  Coefficient  Atom+Function  
  ----- ------------  ---------------      ----- ------------  ---------------
   119      5.085042  3 O  s                 64     -2.741512  2 O  s          
   174     -2.335545  4 O  s                 16      2.029546  1 S  px         
    17      1.524269  1 S  py                53     -1.364146  1 S  fxyy       
   129      1.208289  3 O  px                90     -1.180201  2 O  dxy        
   144     -1.165034  3 O  dxx              184      1.167956  4 O  px         

 Vector   62  Occ=0.000000D+00  E= 8.159210D-01
              MO Center= -2.6D-01,  3.3D-01,  6.8D-01, r^2= 7.0D+00
   Bfn.  Coefficient  Atom+Function         Bfn.  Coefficient  Atom+Function  
  ----- ------------  ---------------      ----- ------------  ---------------
   174     -4.513647  4 O  s                 64      4.282506  2 O  s          
    17     -2.003177  1 S  py                18      1.332318  1 S  pz         
    75     -1.309277  2 O  py                57     -1.239213  1 S  fyyz       
   185     -1.196880  4 O  py               204      1.165209  4 O  dzz        
    93     -1.102943  2 O  dyz               16      1.049883  1 S  px         

 Vector   63  Occ=0.000000D+00  E= 8.238105D-01
              MO Center= -5.9D-01,  7.6D-03,  2.6D-01, r^2= 6.6D+00
   Bfn.  Coefficient  Atom+Function         Bfn.  Coefficient  Atom+Function  
  ----- ------------  ---------------      ----- ------------  ---------------
   119      7.494828  3 O  s                 16      4.919079  1 S  px         
    64     -4.263592  2 O  s                 17      3.925384  1 S  py         
   174     -3.240512  4 O  s                 18      1.602205  1 S  pz         
    35     -1.465244  1 S  dxy               50     -1.439801  1 S  fxxx       
    55     -1.379783  1 S  fxzz              53     -1.245658  1 S  fxyy       

 Vector   64  Occ=0.000000D+00  E= 8.238183D-01
              MO Center=  3.1D-02,  3.2D-01,  5.3D-01, r^2= 6.6D+00
   Bfn.  Coefficient  Atom+Function         Bfn.  Coefficient  Atom+Function  
  ----- ------------  ---------------      ----- ------------  ---------------
   174     -6.794216  4 O  s                 64      6.200819  2 O  s          
    17     -4.832795  1 S  py                18      3.355553  1 S  pz         
    16      2.763505  1 S  px                56      1.391434  1 S  fyyy       
    58      1.369414  1 S  fyzz              51      1.284298  1 S  fxxy       
   204      1.263566  4 O  dzz               37     -1.204207  1 S  dyy        

 Vector   65  Occ=0.000000D+00  E= 8.487301D-01
              MO Center= -9.7D-02,  2.3D-01,  3.7D-01, r^2= 7.8D+00
   Bfn.  Coefficient  Atom+Function         Bfn.  Coefficient  Atom+Function  
  ----- ------------  ---------------      ----- ------------  ---------------
    64      8.016215  2 O  s                174      8.028644  4 O  s          
     6     -6.622499  1 S  s                119      6.481819  3 O  s          
     5      6.380436  1 S  s                 18     -4.542208  1 S  pz         
    37     -4.500561  1 S  dyy               34     -3.338595  1 S  dxx        
    39     -3.152037  1 S  dzz               17     -2.565370  1 S  py         

 Vector   66  Occ=0.000000D+00  E= 8.487357D-01
              MO Center= -4.1D-01, -1.4D-01,  6.5D-03, r^2= 6.3D+00
   Bfn.  Coefficient  Atom+Function         Bfn.  Coefficient  Atom+Function  
  ----- ------------  ---------------      ----- ------------  ---------------
   119      5.789430  3 O  s                 16      4.678994  1 S  px         
     6     -3.282993  1 S  s                  5      3.159466  1 S  s          
    35     -3.143358  1 S  dxy               34     -2.956795  1 S  dxx        
   174      2.729491  4 O  s                 64      2.636037  2 O  s          
    17      1.874136  1 S  py                50     -1.849829  1 S  fxxx       

 Vector   67  Occ=0.000000D+00  E= 8.487631D-01
              MO Center=  8.4D-02,  1.5D-01,  1.0D-01, r^2= 5.9D+00
   Bfn.  Coefficient  Atom+Function         Bfn.  Coefficient  Atom+Function  
  ----- ------------  ---------------      ----- ------------  ---------------
    17      3.937462  1 S  py                18     -2.463661  1 S  pz         
    36     -2.211160  1 S  dxz               64     -2.088436  2 O  s          
    37      2.005715  1 S  dyy               16     -1.945348  1 S  px         
    35      1.933424  1 S  dxy              174      1.912587  4 O  s          
    51     -1.570203  1 S  fxxy              56     -1.569185  1 S  fyyy       

 Vector   68  Occ=0.000000D+00  E= 8.947784D-01
              MO Center=  1.2D-01,  7.2D-02, -4.9D-02, r^2= 5.0D+00
   Bfn.  Coefficient  Atom+Function         Bfn.  Coefficient  Atom+Function  
  ----- ------------  ---------------      ----- ------------  ---------------
    50      3.103095  1 S  fxxx              51      2.734904  1 S  fxxy       
    16     -2.679791  1 S  px               126      2.549674  3 O  px         
    55      2.534205  1 S  fxzz             118      2.443602  3 O  s          
    56      2.051684  1 S  fyyy              53      2.019516  1 S  fxyy       
    17     -1.845532  1 S  py                35     -1.525533  1 S  dxy        

 Vector   69  Occ=0.000000D+00  E= 8.948735D-01
              MO Center= -1.0D-01, -8.5D-02, -1.3D-01, r^2= 5.0D+00
   Bfn.  Coefficient  Atom+Function         Bfn.  Coefficient  Atom+Function  
  ----- ------------  ---------------      ----- ------------  ---------------
    56      3.133097  1 S  fyyy              17     -2.682882  1 S  py         
    58      2.538476  1 S  fyzz              55     -2.254440  1 S  fxzz       
    72      2.249634  2 O  py               183     -2.187092  4 O  pz         
    63     -2.120927  2 O  s                173      2.120022  4 O  s          
    59     -2.025495  1 S  fzzz              51      1.938853  1 S  fxxy       

 Vector   70  Occ=0.000000D+00  E= 9.192783D-01
              MO Center= -5.1D-01,  2.9D-01,  7.7D-01, r^2= 5.9D+00
   Bfn.  Coefficient  Atom+Function         Bfn.  Coefficient  Atom+Function  
  ----- ------------  ---------------      ----- ------------  ---------------
     6      7.541202  1 S  s                 37     -4.922936  1 S  dyy        
    34     -4.805186  1 S  dxx               39     -4.499549  1 S  dzz        
    18     -4.434278  1 S  pz                16      2.675689  1 S  px         
    17     -1.548629  1 S  py                94      1.476644  2 O  dzz        
   149      1.476257  3 O  dzz               89      1.377877  2 O  dxx        

 Vector   71  Occ=0.000000D+00  E= 9.719509D-01
              MO Center=  2.8D-01, -1.7D-01, -5.4D-01, r^2= 5.5D+00
   Bfn.  Coefficient  Atom+Function         Bfn.  Coefficient  Atom+Function  
  ----- ------------  ---------------      ----- ------------  ---------------
     6     -7.674110  1 S  s                  5      7.585745  1 S  s          
    18     -6.566990  1 S  pz                52      5.945725  1 S  fxxz       
    59      5.832208  1 S  fzzz              57      5.520368  1 S  fyyz       
    63     -4.870636  2 O  s                118     -4.865073  3 O  s          
   173     -4.870717  4 O  s                 50     -4.061333  1 S  fxxx       

 Vector   72  Occ=0.000000D+00  E= 9.928020D-01
              MO Center= -4.2D-01,  8.1D-02,  4.2D-01, r^2= 6.1D+00
   Bfn.  Coefficient  Atom+Function         Bfn.  Coefficient  Atom+Function  
  ----- ------------  ---------------      ----- ------------  ---------------
    16     12.302101  1 S  px                17      7.221610  1 S  py         
    18      4.936052  1 S  pz               119      4.350855  3 O  s          
    35     -3.427552  1 S  dxy               53     -3.350585  1 S  fxyy       
    34     -3.274755  1 S  dxx               55     -3.250157  1 S  fxzz       
    50     -3.000138  1 S  fxxx              36      2.834847  1 S  dxz        

 Vector   73  Occ=0.000000D+00  E= 9.928193D-01
              MO Center= -2.0D-01,  2.8D-01,  4.8D-01, r^2= 6.1D+00
   Bfn.  Coefficient  Atom+Function         Bfn.  Coefficient  Atom+Function  
  ----- ------------  ---------------      ----- ------------  ---------------
    17     12.538240  1 S  py                18     -7.098303  1 S  pz         
    16     -4.513042  1 S  px                64     -3.960336  2 O  s          
    51     -3.586828  1 S  fxxy             174      3.602112  4 O  s          
    58     -3.413682  1 S  fyzz              37      3.347174  1 S  dyy        
    56     -2.975773  1 S  fyyy              39     -2.782070  1 S  dzz        

 Vector   74  Occ=0.000000D+00  E= 1.081217D+00
              MO Center= -2.7D-01, -5.7D-02,  1.4D-02, r^2= 4.6D+00
   Bfn.  Coefficient  Atom+Function         Bfn.  Coefficient  Atom+Function  
  ----- ------------  ---------------      ----- ------------  ---------------
    16      4.337677  1 S  px               126      3.569653  3 O  px         
   118      3.541465  3 O  s                 17      3.129181  1 S  py         
    35     -2.109544  1 S  dxy               58      2.091968  1 S  fyzz       
   144      2.006896  3 O  dxx               34     -1.896403  1 S  dxx        
    63     -1.848801  2 O  s                183      1.823348  4 O  pz         

 Vector   75  Occ=0.000000D+00  E= 1.081276D+00
              MO Center=  8.3D-02,  1.6D-01,  1.5D-01, r^2= 4.6D+00
   Bfn.  Coefficient  Atom+Function         Bfn.  Coefficient  Atom+Function  
  ----- ------------  ---------------      ----- ------------  ---------------
    17      4.306515  1 S  py               183     -3.326481  4 O  pz         
   173      3.108166  4 O  s                 63     -3.027188  2 O  s          
    72      3.026006  2 O  py                18     -2.782824  1 S  pz         
   204      2.230386  4 O  dzz               16     -2.120264  1 S  px         
    37      1.859900  1 S  dyy               54     -1.757681  1 S  fxyz       

 Vector   76  Occ=0.000000D+00  E= 1.093088D+00
              MO Center= -2.2D-01,  1.3D-01,  2.9D-01, r^2= 5.4D+00
   Bfn.  Coefficient  Atom+Function         Bfn.  Coefficient  Atom+Function  
  ----- ------------  ---------------      ----- ------------  ---------------
    18      8.872987  1 S  pz                 5      8.179897  1 S  s          
    64     -6.850318  2 O  s                119     -6.847462  3 O  s          
   174     -6.850589  4 O  s                 37      5.480755  1 S  dyy        
    16     -5.354416  1 S  px                34      5.190816  1 S  dxx        
    55      4.572236  1 S  fxzz              39      4.417997  1 S  dzz        

 Vector   77  Occ=0.000000D+00  E= 1.110110D+00
              MO Center=  2.5D-02,  1.4D-01,  1.4D-01, r^2= 5.3D+00
   Bfn.  Coefficient  Atom+Function         Bfn.  Coefficient  Atom+Function  
  ----- ------------  ---------------      ----- ------------  ---------------
    17     14.037097  1 S  py                18     -8.782682  1 S  pz         
    64     -7.530998  2 O  s                174      7.507276  4 O  s          
    16     -6.434362  1 S  px                51     -5.724079  1 S  fxxy       
    58     -4.855027  1 S  fyzz              56     -3.634130  1 S  fyyy       
    57      3.342428  1 S  fyyz              59      2.612639  1 S  fzzz       

 Vector   78  Occ=0.000000D+00  E= 1.110137D+00
              MO Center= -2.2D-01, -2.9D-02,  4.7D-02, r^2= 5.3D+00
   Bfn.  Coefficient  Atom+Function         Bfn.  Coefficient  Atom+Function  
  ----- ------------  ---------------      ----- ------------  ---------------
    16     14.025307  1 S  px                17      9.620811  1 S  py         
   119      8.677848  3 O  s                 58     -5.351835  1 S  fyzz       
    18      5.102704  1 S  pz                53     -5.040770  1 S  fxyy       
    55     -4.848190  1 S  fxzz             174     -4.358712  4 O  s          
    64     -4.317549  2 O  s                 50     -3.860144  1 S  fxxx       

 Vector   79  Occ=0.000000D+00  E= 1.157720D+00
              MO Center=  5.6D-02, -4.2D-02, -1.8D-01, r^2= 4.9D+00
   Bfn.  Coefficient  Atom+Function         Bfn.  Coefficient  Atom+Function  
  ----- ------------  ---------------      ----- ------------  ---------------
   118      4.660303  3 O  s                182     -4.536562  4 O  py         
    38      4.493802  1 S  dyz               58      4.265782  1 S  fyzz       
    55      4.136669  1 S  fxzz              50      3.562363  1 S  fxxx       
    26      3.289146  1 S  dyz              126      3.278859  3 O  px         
    53      3.215240  1 S  fxyy              73     -3.073576  2 O  pz         

 Vector   80  Occ=0.000000D+00  E= 1.157739D+00
              MO Center=  7.2D-02, -3.3D-02, -1.7D-01, r^2= 4.9D+00
   Bfn.  Coefficient  Atom+Function         Bfn.  Coefficient  Atom+Function  
  ----- ------------  ---------------      ----- ------------  ---------------
   181     -4.490277  4 O  px                51      4.361066  1 S  fxxy       
   173      4.094044  4 O  s                 58      4.048625  1 S  fyzz       
    63     -3.979118  2 O  s                 35     -3.949028  1 S  dxy        
    72      3.799547  2 O  py               127     -3.666674  3 O  py         
    56      3.177741  1 S  fyyy              23     -2.903189  1 S  dxy        

 Vector   81  Occ=0.000000D+00  E= 1.162033D+00
              MO Center= -3.3D-02,  2.0D-02, -1.4D-02, r^2= 4.3D+00
   Bfn.  Coefficient  Atom+Function         Bfn.  Coefficient  Atom+Function  
  ----- ------------  ---------------      ----- ------------  ---------------
    54      6.349564  1 S  fxyz              57      4.542486  1 S  fyyz       
    51      4.405778  1 S  fxxy               6     -2.239365  1 S  s          
   146     -2.154607  3 O  dxz              128     -2.140699  3 O  pz         
    73     -2.128762  2 O  pz                24     -2.058933  1 S  dxz        
   181      1.904730  4 O  px                93      1.805390  2 O  dyz        

 Vector   82  Occ=0.000000D+00  E= 1.164963D+00
              MO Center= -2.5D-01,  1.5D-01,  3.5D-01, r^2= 4.4D+00
   Bfn.  Coefficient  Atom+Function         Bfn.  Coefficient  Atom+Function  
  ----- ------------  ---------------      ----- ------------  ---------------
    90     -1.429243  2 O  dxy               71      1.337532  2 O  px         
   182     -1.332583  4 O  py               127      1.202314  3 O  py         
    53      1.070011  1 S  fxyy             146     -0.907167  3 O  dxz        
   147      0.855400  3 O  dyy              200      0.843738  4 O  dxy        
   181     -0.783874  4 O  px                73      0.758658  2 O  pz         

 Vector   83  Occ=0.000000D+00  E= 1.179627D+00
              MO Center= -1.9D-01,  1.1D-01,  2.4D-01, r^2= 4.9D+00
   Bfn.  Coefficient  Atom+Function         Bfn.  Coefficient  Atom+Function  
  ----- ------------  ---------------      ----- ------------  ---------------
     5      4.702236  1 S  s                 36      3.216192  1 S  dxz        
    73      2.498803  2 O  pz               128      2.498706  3 O  pz         
    18     -2.289457  1 S  pz                93     -2.064577  2 O  dyz        
   183      2.056664  4 O  pz                24      2.008293  1 S  dxz        
    38     -1.858764  1 S  dyz              148      1.806813  3 O  dyz        

 Vector   84  Occ=0.000000D+00  E= 1.240733D+00
              MO Center=  2.3D-01,  1.5D-01, -1.1D-03, r^2= 4.1D+00
   Bfn.  Coefficient  Atom+Function         Bfn.  Coefficient  Atom+Function  
  ----- ------------  ---------------      ----- ------------  ---------------
    16     10.224509  1 S  px                17      7.013257  1 S  py         
    51     -5.654918  1 S  fxxy              50     -5.556520  1 S  fxxx       
    23      4.834957  1 S  dxy              118     -4.102267  3 O  s          
    55     -3.879986  1 S  fxzz              18      3.720874  1 S  pz         
    56     -3.614932  1 S  fyyy             119      3.017062  3 O  s          

 Vector   85  Occ=0.000000D+00  E= 1.240890D+00
              MO Center= -2.2D-01, -1.6D-01, -1.6D-01, r^2= 4.1D+00
   Bfn.  Coefficient  Atom+Function         Bfn.  Coefficient  Atom+Function  
  ----- ------------  ---------------      ----- ------------  ---------------
    17     10.229985  1 S  py                18     -6.399340  1 S  pz         
    56     -5.714105  1 S  fyyy              55      5.037242  1 S  fxzz       
    16     -4.687393  1 S  px                58     -3.872681  1 S  fyzz       
    59      3.576481  1 S  fzzz              63      3.563651  2 O  s          
   173     -3.551179  4 O  s                 25     -3.462481  1 S  dyy        

 Vector   86  Occ=0.000000D+00  E= 1.276768D+00
              MO Center= -1.2D-01,  3.3D-02,  7.2D-02, r^2= 5.1D+00
   Bfn.  Coefficient  Atom+Function         Bfn.  Coefficient  Atom+Function  
  ----- ------------  ---------------      ----- ------------  ---------------
    53      7.581084  1 S  fxyy              52      7.172768  1 S  fxxz       
    71     -4.159058  2 O  px               128     -4.061451  3 O  pz         
    55      3.655721  1 S  fxzz              50      3.414162  1 S  fxxx       
    90      3.322607  2 O  dxy              146     -3.216418  3 O  dxz        
   181     -3.177439  4 O  px                56      3.141155  1 S  fyyy       

 Vector   87  Occ=0.000000D+00  E= 1.276782D+00
              MO Center= -6.4D-02,  7.3D-02,  9.2D-02, r^2= 5.1D+00
   Bfn.  Coefficient  Atom+Function         Bfn.  Coefficient  Atom+Function  
  ----- ------------  ---------------      ----- ------------  ---------------
    57      7.610889  1 S  fyyz              51     -4.790565  1 S  fxxy       
    52      4.684362  1 S  fxxz              73     -4.490164  2 O  pz         
    56     -4.367490  1 S  fyyy              93      3.916287  2 O  dyz        
    54     -3.820996  1 S  fxyz              58     -3.657342  1 S  fyzz       
   182      3.189936  4 O  py               127      3.155461  3 O  py         

 Vector   88  Occ=0.000000D+00  E= 1.319916D+00
              MO Center= -4.5D-02,  2.6D-02,  4.0D-03, r^2= 5.0D+00
   Bfn.  Coefficient  Atom+Function         Bfn.  Coefficient  Atom+Function  
  ----- ------------  ---------------      ----- ------------  ---------------
    53      8.088617  1 S  fxyy              54     -4.748456  1 S  fxyz       
    52     -4.132172  1 S  fxxz              57      4.140859  1 S  fyyz       
    71     -3.734104  2 O  px               182      3.736769  4 O  py         
   127     -3.401400  3 O  py                90      3.357717  2 O  dxy        
   203     -3.189098  4 O  dyz               58     -2.879095  1 S  fyzz       

 Vector   89  Occ=0.000000D+00  E= 1.323179D+00
              MO Center= -2.4D-01,  1.4D-01,  3.3D-01, r^2= 5.3D+00
   Bfn.  Coefficient  Atom+Function         Bfn.  Coefficient  Atom+Function  
  ----- ------------  ---------------      ----- ------------  ---------------
     5     48.158594  1 S  s                 72     14.443059  2 O  py         
   126    -12.958369  3 O  px               183     11.223347  4 O  pz         
    63    -10.727179  2 O  s                118    -10.725959  3 O  s          
   173    -10.726996  4 O  s                181      7.929145  4 O  px         
    57      7.534177  1 S  fyyz              92     -7.133314  2 O  dyy        

 Vector   90  Occ=0.000000D+00  E= 1.460442D+00
              MO Center= -4.6D-01, -1.3D-01,  1.3D-01, r^2= 4.6D+00
   Bfn.  Coefficient  Atom+Function         Bfn.  Coefficient  Atom+Function  
  ----- ------------  ---------------      ----- ------------  ---------------
   126     14.683611  3 O  px                53     11.003904  1 S  fxyy       
    55      7.890101  1 S  fxzz             183      7.659999  4 O  pz         
    58      7.466619  1 S  fyzz             144      7.257369  3 O  dxx        
    72      6.955577  2 O  py                50      6.588005  1 S  fxxx       
    52      6.572050  1 S  fxxz              16     -6.387629  1 S  px         

 Vector   91  Occ=0.000000D+00  E= 1.460483D+00
              MO Center=  1.1D-01,  3.4D-01,  3.1D-01, r^2= 4.6D+00
   Bfn.  Coefficient  Atom+Function         Bfn.  Coefficient  Atom+Function  
  ----- ------------  ---------------      ----- ------------  ---------------
    72     13.968105  2 O  py               183    -11.807801  4 O  pz         
    51      9.952213  1 S  fxxy              57     -9.014047  1 S  fyyz       
    58      8.229663  1 S  fyzz              92     -7.144639  2 O  dyy        
    56      6.984922  1 S  fyyy              17     -6.469848  1 S  py         
   181     -6.008056  4 O  px                63     -5.636568  2 O  s          

 Vector   92  Occ=0.000000D+00  E= 1.534838D+00
              MO Center= -5.0D-02,  2.9D-02,  1.2D-02, r^2= 3.9D+00
   Bfn.  Coefficient  Atom+Function         Bfn.  Coefficient  Atom+Function  
  ----- ------------  ---------------      ----- ------------  ---------------
     5     30.202575  1 S  s                 63    -12.287572  2 O  s          
   118    -12.285773  3 O  s                173    -12.287451  4 O  s          
    72      9.502371  2 O  py               126     -8.176859  3 O  px         
    52      7.209845  1 S  fxxz              57      7.186608  1 S  fyyz       
    59      7.101903  1 S  fzzz             183      6.463915  4 O  pz         

 Vector   93  Occ=0.000000D+00  E= 1.863517D+00
              MO Center= -2.7D-01,  1.5D-01,  3.6D-01, r^2= 2.8D+00
   Bfn.  Coefficient  Atom+Function         Bfn.  Coefficient  Atom+Function  
  ----- ------------  ---------------      ----- ------------  ---------------
    16      1.475090  1 S  px                10      1.292876  1 S  px         
[...]
   124      5.721514  3 O  py                70     -5.489763  2 O  pz         
   178      4.688976  4 O  px               180     -4.579328  4 O  pz         
   169     -3.502583  3 O  fzzz             123     -3.474265  3 O  px         

 Vector  213  Occ=0.000000D+00  E= 1.340154D+01
              MO Center=  2.6D-01,  6.2D-01,  5.8D-01, r^2= 3.1D+00
   Bfn.  Coefficient  Atom+Function         Bfn.  Coefficient  Atom+Function  
  ----- ------------  ---------------      ----- ------------  ---------------
    70     10.250186  2 O  pz               178      7.690088  4 O  px         
   180     -7.112826  4 O  pz                68     -6.109861  2 O  px         
    97     -5.139240  2 O  fxxz             102     -5.145032  2 O  fyyz       
   104     -5.149803  2 O  fzzz             179     -4.175792  4 O  py         
   205     -3.875273  4 O  fxxx             208     -3.871416  4 O  fxyy       

 Vector  214  Occ=0.000000D+00  E= 1.344221D+01
              MO Center= -2.9D-01,  1.7D-01,  4.2D-01, r^2= 3.6D+00
   Bfn.  Coefficient  Atom+Function         Bfn.  Coefficient  Atom+Function  
  ----- ------------  ---------------      ----- ------------  ---------------
    70      7.998080  2 O  pz               125      7.956908  3 O  pz         
   178     -6.358099  4 O  px               180      5.536956  4 O  pz         
     3     -4.926601  1 S  s                 68     -4.548960  2 O  px         
   102     -4.057089  2 O  fyyz             124      4.047912  3 O  py         
    97     -4.025008  2 O  fxxz             104     -4.023934  2 O  fzzz       

 Vector  215  Occ=0.000000D+00  E= 1.344677D+01
              MO Center= -2.8D-01,  1.6D-01,  4.0D-01, r^2= 3.7D+00
   Bfn.  Coefficient  Atom+Function         Bfn.  Coefficient  Atom+Function  
  ----- ------------  ---------------      ----- ------------  ---------------
    68      8.281945  2 O  px               179     -8.284055  4 O  py         
   124      7.546445  3 O  py               178     -4.791573  4 O  px         
    70      4.732544  2 O  pz               125     -4.744183  3 O  pz         
    95     -4.154353  2 O  fxxx             100     -4.151111  2 O  fxzz       
   206      4.146234  4 O  fxxy             211      4.146076  4 O  fyyy       

 Vector  216  Occ=0.000000D+00  E= 1.382852D+01
              MO Center= -7.5D-01, -3.3D-01,  2.6D-01, r^2= 3.1D+00
   Bfn.  Coefficient  Atom+Function         Bfn.  Coefficient  Atom+Function  
  ----- ------------  ---------------      ----- ------------  ---------------
   124     10.624808  3 O  py               179      7.499730  4 O  py         
   125     -6.537586  3 O  pz               151     -5.377563  3 O  fxxy       
   156     -5.349640  3 O  fyyy             158     -5.357346  3 O  fyzz       
    17     -4.989827  1 S  py                11      4.815508  1 S  py         
   123     -4.689725  3 O  px                68     -4.543021  2 O  px         

 Vector  217  Occ=0.000000D+00  E= 1.382890D+01
              MO Center=  2.1D-01,  6.4D-01,  5.0D-01, r^2= 3.1D+00
   Bfn.  Coefficient  Atom+Function         Bfn.  Coefficient  Atom+Function  
  ----- ------------  ---------------      ----- ------------  ---------------
    68     10.676176  2 O  px               179      8.888435  4 O  py         
   178      6.245573  4 O  px                70      5.843515  2 O  pz         
    98     -5.428043  2 O  fxyy              95     -5.398230  2 O  fxxx       
   100     -5.387919  2 O  fxzz              16     -4.875493  1 S  px         
    10      4.701768  1 S  px               213     -4.584881  4 O  fyzz       

 Vector  218  Occ=0.000000D+00  E= 1.471706D+01
              MO Center= -2.9D-01,  1.7D-01,  4.1D-01, r^2= 4.0D+00
   Bfn.  Coefficient  Atom+Function         Bfn.  Coefficient  Atom+Function  
  ----- ------------  ---------------      ----- ------------  ---------------
     5     25.252259  1 S  s                  3    -18.959693  1 S  s          
     2    -13.289346  1 S  s                 72      7.010175  2 O  py         
   126     -5.937548  3 O  px                69      5.695196  2 O  py         
    61     -4.865563  2 O  s                116     -4.860963  3 O  s          
   171     -4.865607  4 O  s                181      4.818476  4 O  px         

 Vector  219  Occ=0.000000D+00  E= 1.551399D+01
              MO Center= -2.5D-01,  1.4D-01,  3.4D-01, r^2= 3.2D+00
   Bfn.  Coefficient  Atom+Function         Bfn.  Coefficient  Atom+Function  
  ----- ------------  ---------------      ----- ------------  ---------------
     3     21.201251  1 S  s                  2     14.890517  1 S  s          
    69      7.973440  2 O  py               123     -7.698106  3 O  px         
   180      7.348308  4 O  pz                 5      5.426388  1 S  s          
    72      4.702627  2 O  py               126     -4.647111  3 O  px         
   183      4.563796  4 O  pz                 4     -4.504912  1 S  s          

 Vector  220  Occ=0.000000D+00  E= 1.577460D+01
              MO Center= -8.5D-01, -2.2D-01,  1.8D-01, r^2= 3.0D+00
   Bfn.  Coefficient  Atom+Function         Bfn.  Coefficient  Atom+Function  
  ----- ------------  ---------------      ----- ------------  ---------------
   123     12.395245  3 O  px               126     10.645239  3 O  px         
    69      7.018884  2 O  py               150     -6.373021  3 O  fxxx       
   155     -6.400666  3 O  fxzz             153     -6.336464  3 O  fxyy       
   124      6.092162  3 O  py                16      6.055017  1 S  px         
    72      5.855701  2 O  py               165     -5.422769  3 O  fxzz       

 Vector  221  Occ=0.000000D+00  E= 1.577543D+01
              MO Center=  3.0D-01,  5.5D-01,  6.1D-01, r^2= 3.0D+00
   Bfn.  Coefficient  Atom+Function         Bfn.  Coefficient  Atom+Function  
  ----- ------------  ---------------      ----- ------------  ---------------
    69     11.928783  2 O  py                72     10.108464  2 O  py         
   180     -9.425390  4 O  pz               183     -8.330341  4 O  pz         
   178     -6.706279  4 O  px                96     -6.145345  2 O  fxxy       
   101     -6.116375  2 O  fyyy             103     -6.143154  2 O  fyzz       
    17      6.042292  1 S  py               181     -5.477244  4 O  px         

 Vector  222  Occ=0.000000D+00  E= 1.698462D+01
              MO Center=  3.3D-01,  3.3D-01,  6.9D-01, r^2= 2.0D+00
   Bfn.  Coefficient  Atom+Function         Bfn.  Coefficient  Atom+Function  
  ----- ------------  ---------------      ----- ------------  ---------------
   173      8.489638  4 O  s                 63     -6.909109  2 O  s          
   171      5.474918  4 O  s                 61     -4.455611  2 O  s          
   198     -3.972800  4 O  dzz              193     -3.936084  4 O  dxx        
   196     -3.945437  4 O  dyy               86      3.254529  2 O  dyy        
    88      3.208204  2 O  dzz               83      3.184264  2 O  dxx        

 Vector  223  Occ=0.000000D+00  E= 1.698465D+01
              MO Center= -8.8D-01, -6.9D-03,  8.3D-02, r^2= 2.0D+00
   Bfn.  Coefficient  Atom+Function         Bfn.  Coefficient  Atom+Function  
  ----- ------------  ---------------      ----- ------------  ---------------
   118      8.900301  3 O  s                 63     -5.808932  2 O  s          
   116      5.740578  3 O  s                138     -4.175177  3 O  dxx        
   141     -4.138091  3 O  dyy              143     -4.111365  3 O  dzz        
    61     -3.745947  2 O  s                123     -3.658487  3 O  px         
   126     -3.290622  3 O  px               173     -3.064849  4 O  s          

 Vector  224  Occ=0.000000D+00  E= 1.709667D+01
              MO Center= -2.8D-01,  1.6D-01,  3.9D-01, r^2= 2.5D+00
   Bfn.  Coefficient  Atom+Function         Bfn.  Coefficient  Atom+Function  
  ----- ------------  ---------------      ----- ------------  ---------------
    63      7.002269  2 O  s                118      6.989228  3 O  s          
   173      7.002961  4 O  s                  3      5.142429  1 S  s          
    61      5.066539  2 O  s                116      5.057243  3 O  s          
   171      5.067069  4 O  s                  2      3.548653  1 S  s          
    86     -3.436949  2 O  dyy              138     -3.367781  3 O  dxx        


   alpha - beta orbital overlaps 
   ----------------------------- 


   alpha      1      2      3      4      5      6      7      8      9     10
    beta      1      2      3      4      5      6      7      8      9     10
 overlap   1.000  0.995  0.999  0.995  1.000  0.803  0.803  1.000  1.000  1.000


   alpha     11     12     13     14     15     16     17     18     19     20
    beta     11     12     13     14     15     16     17     18     19     21
 overlap   1.000  0.998  0.997  0.997  0.997  0.983  0.983  0.984  0.984  0.998


   alpha     21     22     23     24     25     26     27     28     29     30
    beta     20     22     23     24     25     27     26     28     29     30
 overlap   1.000  0.981  0.999  0.999  0.982  0.698  0.698  0.707  0.707  0.999


   alpha     31     32     33     34     35     36     37     38     39     40
    beta     31     32     33     34     35     36     37     38     39     40
 overlap   0.994  0.994  0.998  0.999  1.000  0.995  0.995  0.996  0.999  0.999


   alpha     41     42     43     44     45     46     47     48     49     50
    beta     41     42     43     44     45     46     47     48     49     50
 overlap   0.996  1.000  1.000  0.999  0.999  0.999  0.999  1.000  1.000  1.000


   alpha     51     52     53     54     55     56     57     58     59     60
    beta     51     52     53     54     55     56     57     58     59     60
 overlap   1.000  0.997  0.999  1.000  1.000  0.941  0.999  0.941  0.967  0.967


   alpha     61     62     63     64     65     66     67     68     69     70
    beta     61     62     63     64     67     65     66     68     69     70
 overlap   0.937  0.937  0.957  0.957  0.894  0.895  0.999  0.998  0.998  1.000


   alpha     71     72     73     74     75     76     77     78     79     80
    beta     71     72     73     74     75     76     77     78     79     80
 overlap   0.998  0.999  0.999  0.989  0.989  0.997  0.989  0.989  0.999  0.999


   alpha     81     82     83     84     85     86     87     88     89     90
    beta     82     81     83     84     85     86     87     88     89     90
 overlap   0.985  1.000  0.987  0.999  0.999  0.999  0.999  1.000  1.000  1.000


   alpha     91     92     93     94     95     96     97     98     99    100
    beta     91     92     94     95     93     96     97     98     99    100
 overlap   1.000  0.999  0.998  0.963  0.964  0.998  0.997  0.997  0.998  0.997


   alpha    101    102    103    104    105    106    107    108    109    110
    beta    101    104    103    102    105    106    107    108    109    110
 overlap   0.997  0.974  0.974  0.999  0.999  0.894  0.894  0.999  0.999  0.999


   alpha    111    112    113    114    115    116    117    118    119    120
    beta    111    112    113    114    115    116    117    118    119    120
 overlap   0.997  0.997  0.997  0.997  1.000  0.998  0.998  0.998  1.000  0.998


   alpha    121    122    123    124    125    126    127    128    129    130
    beta    121    122    123    124    125    126    127    128    129    130
 overlap   0.998  0.998  0.999  0.999  0.994  0.999  0.999  0.995  0.997  0.997


   alpha    131    132    133    134    135    136    137    138    139    140
    beta    131    132    133    134    135    136    137    138    139    140
 overlap   0.999  1.000  1.000  1.000  0.953  0.953  1.000  0.999  0.999  1.000


   alpha    141    142    143    144    145    146    147    148    149    150
    beta    141    142    143    144    145    146    147    148    149    150
 overlap   1.000  0.999  0.999  1.000  1.000  0.999  0.999  1.000  0.999  0.999


   alpha    151    152    153    154    155    156    157    158    159    160
    beta    151    152    153    154    155    156    157    158    159    160
 overlap   1.000  1.000  1.000  1.000  1.000  1.000  1.000  1.000  1.000  1.000


   alpha    161    162    163    164    165    166    167    168    169    170
    beta    161    162    163    164    166    165    167    168    169    170
 overlap   0.988  0.989  0.989  0.989  1.000  1.000  1.000  1.000  1.000  1.000


   alpha    171    172    173    174    175    176    177    178    179    180
    beta    171    172    173    174    175    176    177    178    179    180
 overlap   1.000  0.999  0.999  1.000  0.992  0.992  1.000  0.991  0.991  0.999


   alpha    181    182    183    184    185    186    187    188    189    190
    beta    181    182    183    184    185    186    187    188    189    190
 overlap   0.998  0.998  0.997  0.997  0.997  1.000  0.997  0.998  0.974  0.974


   alpha    191    192    193    194    195    196    197    198    199    200
    beta    191    192    193    194    195    196    197    198    199    200
 overlap   0.989  0.989  0.982  0.981  0.999  0.981  0.982  0.995  0.995  0.999


   alpha    201    202    203    204    205    206    207    208    209    210
    beta    201    202    203    204    205    206    207    208    209    210
 overlap   0.997  0.997  1.000  1.000  1.000  1.000  1.000  1.000  1.000  1.000


   alpha    211    212    213    214    215    216    217    218    219    220
    beta    211    212    213    214    215    216    217    218    219    220
 overlap   1.000  1.000  1.000  1.000  1.000  1.000  1.000  1.000  1.000  1.000


   alpha    221    222    223    224
    beta    221    222    223    224
 overlap   1.000  0.997  0.997  1.000

     --------------------------
     Expectation value of S2:  
     --------------------------
      <S2> =      0.7531 (Exact =     0.7500)


 center of mass
 --------------
 x =  -0.32780305 y =   0.18992308 z =   0.41058919

 moments of inertia (a.u.)
 ------------------
         244.713619070220         -22.931404508268         -65.587144759484
         -22.931404508268         218.423506952192          37.927262753745
         -65.587144759484          37.927262753745         313.872706960856

     Multipole analysis of the density
     ---------------------------------

     L   x y z        total         alpha         beta         nuclear
     -   - - -        -----         -----         ----         -------
     0   0 0 0     -1.000000    -21.000000    -20.000000     40.000000

     1   1 0 0      0.624993      6.990392      6.743909    -13.109309
     1   0 1 0     -0.361122     -4.049162     -3.907256      7.595297
     1   0 0 1     -0.901944     -8.797546     -8.523306     16.418907

     2   2 0 0    -28.562217    -53.995106    -50.782880     76.215768
     2   1 1 0     -0.789570     -4.873488     -4.895690      8.979608
     2   1 0 1     -2.341472    -14.863463    -14.899527     27.421519
     2   0 2 0    -29.467668    -59.579781    -56.398165     86.510278
     2   0 1 1      1.353402      8.591840      8.612713    -15.851151
     2   0 0 2    -25.923984    -36.592001    -33.401921     44.069938


 Task  times  cpu:       25.2s     wall:       26.7s


                                NWChem Input Module
                                -------------------


 Summary of allocated global arrays
-----------------------------------
  No active global arrays


MA_summarize_allocated_blocks: starting scan ...
heap block 'gridpts', handle 122, address 0x11784928:
	type of elements:		double precision
	number of elements:		33554432
	address of client space:	0x11784980
	index for client space:		12031113
	total number of bytes:		268435552
MA_summarize_allocated_blocks: scan completed: 1 heap block, 0 stack blocks
MA usage statistics:

	allocation statistics:
					      heap	     stack
					      ----	     -----
	current number of blocks	         1	         0
	maximum number of blocks	        21	        53
	current total bytes		 268435552	         0
	maximum total bytes		 268972928	  34139960
	maximum total K-bytes		    268973	     34140
	maximum total M-bytes		       269	        35


                                     CITATION
                                     --------
                Please cite the following reference when publishing
                           results obtained with NWChem:

          E. Apra, E. J. Bylaska, W. A. de Jong, N. Govind, K. Kowalski,
       T. P. Straatsma, M. Valiev, H. J. J. van Dam, Y. Alexeev, J. Anchell,
       V. Anisimov, F. W. Aquino, R. Atta-Fynn, J. Autschbach, N. P. Bauman,
     J. C. Becca, D. E. Bernholdt, K. Bhaskaran-Nair, S. Bogatko, P. Borowski,
         J. Boschen, J. Brabec, A. Bruner, E. Cauet, Y. Chen, G. N. Chuev,
      C. J. Cramer, J. Daily, M. J. O. Deegan, T. H. Dunning Jr., M. Dupuis,
   K. G. Dyall, G. I. Fann, S. A. Fischer, A. Fonari, H. Fruchtl, L. Gagliardi,
      J. Garza, N. Gawande, S. Ghosh, K. Glaesemann, A. W. Gotz, J. Hammond,
       V. Helms, E. D. Hermes, K. Hirao, S. Hirata, M. Jacquelin, L. Jensen,
   B. G. Johnson, H. Jonsson, R. A. Kendall, M. Klemm, R. Kobayashi, V. Konkov,
      S. Krishnamoorthy, M. Krishnan, Z. Lin, R. D. Lins, R. J. Littlefield,
      A. J. Logsdail, K. Lopata, W. Ma, A. V. Marenich, J. Martin del Campo,
   D. Mejia-Rodriguez, J. E. Moore, J. M. Mullin, T. Nakajima, D. R. Nascimento,
    J. A. Nichols, P. J. Nichols, J. Nieplocha, A. Otero-de-la-Roza, B. Palmer,
    A. Panyala, T. Pirojsirikul, B. Peng, R. Peverati, J. Pittner, L. Pollack,
   R. M. Richard, P. Sadayappan, G. C. Schatz, W. A. Shelton, D. W. Silverstein,
   D. M. A. Smith, T. A. Soares, D. Song, M. Swart, H. L. Taylor, G. S. Thomas,
            V. Tipparaju, D. G. Truhlar, K. Tsemekhman, T. Van Voorhis,
      A. Vazquez-Mayagoitia, P. Verma, O. Villa, A. Vishnu, K. D. Vogiatzis,
        D. Wang, J. H. Weare, M. J. Williamson, T. L. Windus, K. Wolinski,
        A. T. Wong, Q. Wu, C. Yang, Q. Yu, M. Zacharias, Z. Zhang, Y. Zhao,
                                and R. J. Harrison
                        "NWChem: Past, present, and future
                         J. Chem. Phys. 152, 184102 (2020)
                               doi:10.1063/5.0004997

                                      AUTHORS
                                      -------
  E. Apra, E. J. Bylaska, N. Govind, K. Kowalski, M. Valiev, D. Mejia-Rodriguez,
       A. Kunitsa, N. P. Bauman, A. Panyala, W. A. de Jong, T. P. Straatsma,
   H. J. J. van Dam, D. Wang, T. L. Windus, J. Hammond, J. Autschbach, A. Woods,
    K. Bhaskaran-Nair, J. Brabec, K. Lopata, S. A. Fischer, S. Krishnamoorthy,
     M. Jacquelin, W. Ma, M. Klemm, O. Villa, Y. Chen, V. Anisimov, F. Aquino,
     S. Hirata, M. T. Hackler, E. Hermes, L. Jensen, J. E. Moore, J. C. Becca,
      V. Konjkov, T. Risthaus, M. Malagoli, A. Marenich, A. Otero-de-la-Roza,
        J. Mullin, P. Nichols, R. Peverati, J. Pittner, Y. Zhao, P.-D. Fan,
        A. Fonari, M. J. Williamson, R. J. Harrison, J. R. Rehr, M. Dupuis,
     D. Silverstein, D. M. A. Smith, J. Nieplocha, V. Tipparaju, M. Krishnan,
     B. E. Van Kuiken, A. Vazquez-Mayagoitia, M. Swart, Q. Wu, T. Van Voorhis,
     A. A. Auer, M. Nooijen, L. D. Crosby, E. Brown, G. Cisneros, G. I. Fann,
   H. Fruchtl, J. Garza, K. Hirao, R. A. Kendall, J. A. Nichols, K. Tsemekhman,
    K. Wolinski, J. Anchell, D. E. Bernholdt, P. Borowski, T. Clark, D. Clerc,
   H. Dachsel, M. J. O. Deegan, K. Dyall, D. Elwood, E. Glendening, M. Gutowski,
   A. C. Hess, J. Jaffe, B. G. Johnson, J. Ju, R. Kobayashi, R. Kutteh, Z. Lin,
   R. Littlefield, X. Long, B. Meng, T. Nakajima, S. Niu, L. Pollack, M. Rosing,
   K. Glaesemann, G. Sandrone, M. Stave, H. Taylor, G. Thomas, J. H. van Lenthe,
                               A. T. Wong, Z. Zhang.

 Total times  cpu:       25.3s     wall:       26.8s
