 argument  1 = m1e/mol.nwi
                                         
                                         


             Northwest Computational Chemistry Package (NWChem) 7.2.2
             --------------------------------------------------------


                    Environmental Molecular Sciences Laboratory
                       Pacific Northwest National Laboratory
                                Richland, WA 99352

                              Copyright (c) 1994-2022
                       Pacific Northwest National Laboratory
                            Battelle Memorial Institute

             NWChem is an open-source computational chemistry package
                        distributed under the terms of the
                      Educational Community License (ECL) 2.0
             A copy of the license is included with this distribution
                              in the LICENSE.TXT file

                                  ACKNOWLEDGMENT
                                  --------------

            This software and its documentation were developed at the
            EMSL at Pacific Northwest National Laboratory, a multiprogram
            national laboratory, operated for the U.S. Department of Energy
            by Battelle under Contract Number DE-AC05-76RL01830. Support
            for this work was provided by the Department of Energy Office
            of Biological and Environmental Research, Office of Basic
            Energy Sciences, and the Office of Advanced Scientific Computing.


           Job information
           ---------------

    hostname        = r310.ib.bridges2.psc.edu
    program         = nwchem
    date            = Tue Oct  1 14:13:26 2024

    compiled        = Mon_Mar_18_17:03:37_2024
    source          = /ocean/projects/pscstaff/mmadrid/nwchem-7.2.2
    nwchem branch   = 7.2.2
    nwchem revision = 74936fb9
    ga revision     = 5.8.0
    use scalapack   = F
    input           = m1e/mol.nwi
    prefix          = dft.
    data base       = .//dft.db
    status          = startup
    nproc           =       15
    time left       =     -1s



           Memory information
           ------------------

    heap     =   67108864 doubles =    512.0 Mbytes
    stack    =   67108861 doubles =    512.0 Mbytes
    global   =  134217728 doubles =   1024.0 Mbytes (distinct from heap & stack)
    total    =  268435453 doubles =   2048.0 Mbytes
    verify   = yes
    hardfail = no 


           Directory information
           ---------------------

  0 permanent = ./
  0 scratch   = /jet/home/hmt47/nwchem_scratch/




                                NWChem Input Module
                                -------------------


  library name resolved from: environment
  library file name is: </opt/packages/nwchem/nwchem7.2.2/share/nwchem/libraries/>
  


 Summary of "ao basis" -> "" (cartesian)
 ------------------------------------------------------------------------------
       Tag                 Description            Shells   Functions and Types
 ---------------- ------------------------------  ------  ---------------------
 *                        aug-cc-pVTZ                 on all atoms 


  pbe96 is a nonlocal functional; adding pw91lda local functional. 

 Scaling coordinates for geometry "geometry" by  1.889725989
 (inverse scale =  0.529177249)



                             Geometry "geometry" -> ""
                             -------------------------

 Output coordinates in angstroms (scale by  1.889725989 to convert to a.u.)

  No.       Tag          Charge          X              Y              Z
 ---- ---------------- ---------- -------------- -------------- --------------
    1 C                    6.0000     0.00000000     0.00000000     0.00000000
    2 O                    8.0000    -0.09365600    -0.00000700     1.34059600
    3 O                    8.0000     0.59261500     0.99166500    -0.54540600
    4 O                    8.0000    -0.53044800    -1.02139400    -0.54989600
    5 H                    1.0000     0.34535800     0.80661600     1.70986600

      Atomic Mass 
      ----------- 

      C                 12.000000
      O                 15.994910
      H                  1.007825


 Effective nuclear repulsion energy (a.u.)     113.1468674583

            Nuclear Dipole moment (a.u.) 
            ----------------------------
        X                 Y               Z
 ---------------- ---------------- ----------------
     0.1765873347     1.0747400820     6.9394857903


            XYZ format geometry
            -------------------
     5
 geometry
 C                     0.00000000     0.00000000     0.00000000
 O                    -0.09365600    -0.00000700     1.34059600
 O                     0.59261500     0.99166500    -0.54540600
 O                    -0.53044800    -1.02139400    -0.54989600
 H                     0.34535800     0.80661600     1.70986600

 ==============================================================================
                                internuclear distances
 ------------------------------------------------------------------------------
       center one      |      center two      | atomic units |  angstroms
 ------------------------------------------------------------------------------
    2 O                |   1 C                |     2.53953  |     1.34386
    3 O                |   1 C                |     2.41416  |     1.27752
    4 O                |   1 C                |     2.41042  |     1.27554
    5 H                |   2 O                |     1.87048  |     0.98982
 ------------------------------------------------------------------------------
                         number of included internuclear distances:          4
 ==============================================================================



 ==============================================================================
                                 internuclear angles
 ------------------------------------------------------------------------------
        center 1       |       center 2       |       center 3       |  degrees
 ------------------------------------------------------------------------------
    2 O                |   1 C                |   3 O                |   117.27
    2 O                |   1 C                |   4 O                |   113.65
    3 O                |   1 C                |   4 O                |   129.08
    1 C                |   2 O                |   5 H                |   109.95
 ------------------------------------------------------------------------------
                            number of included internuclear angles:          4
 ==============================================================================





                           NWChem Geometry Optimization
                           ----------------------------


 maximum gradient threshold         (gmax) =   0.000450
 rms gradient threshold             (grms) =   0.000300
 maximum cartesian step threshold   (xmax) =   0.001800
 rms cartesian step threshold       (xrms) =   0.001200
 fixed trust radius                (trust) =   0.300000
 maximum step size to saddle      (sadstp) =   0.100000
 energy precision                  (eprec) =   5.0D-06
 maximum number of steps          (nptopt) =   40
 initial hessian option           (inhess) =    0
 line search option               (linopt) =    1
 hessian update option            (modupd) =    1
 saddle point option              (modsad) =    0
 initial eigen-mode to follow     (moddir) =    0
 initial variable to follow       (vardir) =    0
 follow first negative mode     (firstneg) =    T
 apply conjugacy                    (opcg) =    F
 source of zmatrix                         =           


          -------------------
          Energy Minimization
          -------------------


 Using diagonal initial Hessian 

          --------
          Step   0
          --------


                         Geometry "geometry" -> "geometry"
                         ---------------------------------

 Output coordinates in angstroms (scale by  1.889725989 to convert to a.u.)

  No.       Tag          Charge          X              Y              Z
 ---- ---------------- ---------- -------------- -------------- --------------
    1 C                    6.0000     0.00000000     0.00000000     0.00000000
    2 O                    8.0000    -0.09365600    -0.00000700     1.34059600
    3 O                    8.0000     0.59261500     0.99166500    -0.54540600
    4 O                    8.0000    -0.53044800    -1.02139400    -0.54989600
    5 H                    1.0000     0.34535800     0.80661600     1.70986600

      Atomic Mass 
      ----------- 

      C                 12.000000
      O                 15.994910
      H                  1.007825


 Effective nuclear repulsion energy (a.u.)     113.1468674583

            Nuclear Dipole moment (a.u.) 
            ----------------------------
        X                 Y               Z
 ---------------- ---------------- ----------------
     0.1765873347     1.0747400820     6.9394857903


                                 NWChem DFT Module
                                 -----------------


                      Basis "ao basis" -> "ao basis" (cartesian)
                      -----
  C (Carbon)
  ----------
            Exponent  Coefficients 
       -------------- ---------------------------------------------------------
  1 S  8.23600000E+03  0.000531
  1 S  1.23500000E+03  0.004108
  1 S  2.80800000E+02  0.021087
  1 S  7.92700000E+01  0.081853
  1 S  2.55900000E+01  0.234817
  1 S  8.99700000E+00  0.434401
  1 S  3.31900000E+00  0.346129
  1 S  3.64300000E-01 -0.008983

  2 S  8.23600000E+03 -0.000113
  2 S  1.23500000E+03 -0.000878
  2 S  2.80800000E+02 -0.004540
  2 S  7.92700000E+01 -0.018133
  2 S  2.55900000E+01 -0.055760
  2 S  8.99700000E+00 -0.126895
  2 S  3.31900000E+00 -0.170352
  2 S  3.64300000E-01  0.598684

  3 S  9.05900000E-01  1.000000

  4 S  1.28500000E-01  1.000000

  5 S  4.40200000E-02  1.000000

  6 P  1.87100000E+01  0.014031
  6 P  4.13300000E+00  0.086866
  6 P  1.20000000E+00  0.290216

  7 P  3.82700000E-01  1.000000

  8 P  1.20900000E-01  1.000000

  9 P  3.56900000E-02  1.000000

 10 D  1.09700000E+00  1.000000

 11 D  3.18000000E-01  1.000000

 12 D  1.00000000E-01  1.000000

 13 F  7.61000000E-01  1.000000

 14 F  2.68000000E-01  1.000000

  O (Oxygen)
  ----------
            Exponent  Coefficients 
       -------------- ---------------------------------------------------------
  1 S  1.53300000E+04  0.000508
  1 S  2.29900000E+03  0.003929
  1 S  5.22400000E+02  0.020243
  1 S  1.47300000E+02  0.079181
  1 S  4.75500000E+01  0.230687
  1 S  1.67600000E+01  0.433118
  1 S  6.20700000E+00  0.350260
  1 S  6.88200000E-01 -0.008154

  2 S  1.53300000E+04 -0.000115
  2 S  2.29900000E+03 -0.000895
  2 S  5.22400000E+02 -0.004636
  2 S  1.47300000E+02 -0.018724
  2 S  4.75500000E+01 -0.058463
  2 S  1.67600000E+01 -0.136463
  2 S  6.20700000E+00 -0.175740
  2 S  6.88200000E-01  0.603418

  3 S  1.75200000E+00  1.000000

  4 S  2.38400000E-01  1.000000

  5 S  7.37600000E-02  1.000000

  6 P  3.44600000E+01  0.015928
  6 P  7.74900000E+00  0.099740
  6 P  2.28000000E+00  0.310492

  7 P  7.15600000E-01  1.000000

  8 P  2.14000000E-01  1.000000

  9 P  5.97400000E-02  1.000000

 10 D  2.31400000E+00  1.000000

 11 D  6.45000000E-01  1.000000

 12 D  2.14000000E-01  1.000000

 13 F  1.42800000E+00  1.000000

 14 F  5.00000000E-01  1.000000

  H (Hydrogen)
  ------------
            Exponent  Coefficients 
       -------------- ---------------------------------------------------------
  1 S  3.38700000E+01  0.006068
  1 S  5.09500000E+00  0.045308
  1 S  1.15900000E+00  0.202822

  2 S  3.25800000E-01  1.000000

  3 S  1.02700000E-01  1.000000

  4 S  2.52600000E-02  1.000000

  5 P  1.40700000E+00  1.000000

  6 P  3.88000000E-01  1.000000

  7 P  1.02000000E-01  1.000000

  8 D  1.05700000E+00  1.000000

  9 D  2.47000000E-01  1.000000



 Summary of "ao basis" -> "ao basis" (cartesian)
 ------------------------------------------------------------------------------
       Tag                 Description            Shells   Functions and Types
 ---------------- ------------------------------  ------  ---------------------
 C                        aug-cc-pVTZ               14       55   5s4p3d2f
 O                        aug-cc-pVTZ               14       55   5s4p3d2f
 H                        aug-cc-pVTZ                9       25   4s3p2d




 Summary of "ao basis" -> "ao basis" (cartesian)
 ------------------------------------------------------------------------------
       Tag                 Description            Shells   Functions and Types
 ---------------- ------------------------------  ------  ---------------------
 C                        aug-cc-pVTZ               14       55   5s4p3d2f
 O                        aug-cc-pVTZ               14       55   5s4p3d2f
 H                        aug-cc-pVTZ                9       25   4s3p2d


  Caching 1-el integrals 

            General Information
            -------------------
          SCF calculation type: DFT
          Wavefunction type:  closed shell.
          No. of atoms     :     5
          No. of electrons :    32
           Alpha electrons :    16
            Beta electrons :    16
          Charge           :    -1
          Spin multiplicity:     1
          Use of symmetry is: off; symmetry adaption is: off
          Maximum number of iterations: 200
          AO basis - number of functions:   245
                     number of shells:    65
          Convergence on energy requested:  1.00D-06
          Convergence on density requested:  1.00D-05
          Convergence on gradient requested:  5.00D-04

              XC Information
              --------------
          PerdewBurkeErnzerhof Exchange Functional  1.000          
            Perdew 1991 LDA Correlation Functional  1.000 local    
           PerdewBurkeErnz. Correlation Functional  1.000 non-local

             Grid Information
             ----------------
          Grid used for XC integration:  medium    
          Radial quadrature: Mura-Knowles        
          Angular quadrature: Lebedev. 
          Tag              B.-S. Rad. Rad. Pts. Rad. Cut. Ang. Pts.
          ---              ---------- --------- --------- ---------
          C                   0.70       49          12.0       434
          O                   0.60       49          13.0       434
          H                   0.35       45          12.0       434
          Grid pruning is: on 
          Number of quadrature shells:   241
          Spatial weights used:  Erf1

          Convergence Information
          -----------------------
          Convergence aids based upon iterative change in 
          total energy or number of iterations. 
          Levelshifting, if invoked, occurs when the 
          HOMO/LUMO gap drops below (HL_TOL):  1.00D-02
          DIIS, if invoked, will attempt to extrapolate 
          using up to (NFOCK): 10 stored Fock matrices.

                    Damping(40%)  Levelshifting(0.0)       DIIS
                  --------------- ------------------- ---------------
          dE  on:    start            0.00D+00            start   
          dE off:  200 iters          0.00D+00          200 iters 


      Screening Tolerance Information
      -------------------------------
          Density screening/tol_rho:  1.00D-10
          AO Gaussian exp screening on grid/accAOfunc:  14
          CD Gaussian exp screening on grid/accCDfunc:  20
          XC Gaussian exp screening on grid/accXCfunc:  20
          Schwarz screening/accCoul:  1.00D-08


 Forcing the number of linearly dependent vectors to be  0

      Superposition of Atomic Density Guess
      -------------------------------------

 Sum of atomic energies:        -262.51426972
   Time after variat. SCF:      0.3
   Time prior to 1st pass:      0.3

 Grid_pts file          = /jet/home/hmt47/nwchem_scratch//dft.gridpts.00
 Record size in doubles =  12289        No. of grid_pts per rec  =   3070
 Max. records in memory =      4        Max. recs in file   =  67550051

 Grid integrated density:      31.000001557778
 Requested integration accuracy:   0.10E-05

           Memory utilization after 1st SCF pass: 
           Heap Space remaining (MW):       33.50            33499832
          Stack Space remaining (MW):       67.11            67107524

   convergence    iter        energy       DeltaE   RMS-Dens  Diis-err    time
 ---------------- ----- ----------------- --------- --------- ---------  ------
 d=40,ls=0.0,diis     1   -264.7564123931 -3.78D+02  7.89D-03  3.62D+01     0.6
 Grid integrated density:      31.600001634571
 Requested integration accuracy:   0.10E-05
 d=40,ls=0.0,diis     2   -264.4604278966  2.96D-01  4.48D-01  6.26D+00     2.0
 Grid integrated density:      31.840001142024
 Requested integration accuracy:   0.10E-05
 d=40,ls=0.0,diis     3   -263.3020192588  1.16D+00  2.69D-01  5.83D+00     3.4
 Grid integrated density:      31.936001188775
 Requested integration accuracy:   0.10E-05
 d=40,ls=0.0,diis     4   -264.1210630264 -8.19D-01  1.07D-01  7.66D-01     4.8
 Grid integrated density:      31.974401255350
 Requested integration accuracy:   0.10E-05
 d=40,ls=0.0,diis     5   -264.2533367936 -1.32D-01  4.29D-02  5.84D-02     6.3
 Grid integrated density:      31.989761203256
 Requested integration accuracy:   0.10E-05
  Resetting Diis
 d=40,ls=0.0,diis     6   -264.2821900704 -2.89D-02  1.72D-02  1.12D-02     7.7
 Grid integrated density:      31.995905442576
 Requested integration accuracy:   0.10E-05
 d=40,ls=0.0,diis     7   -264.2928090232 -1.06D-02  6.83D-03  2.92D-03     9.1
 Grid integrated density:      31.998363075282
 Requested integration accuracy:   0.10E-05
 d=40,ls=0.0,diis     8   -264.2968245162 -4.02D-03  2.76D-03  2.26D-03    10.6
 Grid integrated density:      31.999346114301
 Requested integration accuracy:   0.10E-05
 d=40,ls=0.0,diis     9   -264.2987412472 -1.92D-03  1.10D-03  1.25D-04    12.1
 Grid integrated density:      31.999739330817
 Requested integration accuracy:   0.10E-05
 d=40,ls=0.0,diis    10   -264.2994610959 -7.20D-04  4.48D-04  9.00D-05    13.5
 Grid integrated density:      31.999896619195
 Requested integration accuracy:   0.10E-05
 d=40,ls=0.0,diis    11   -264.2997596219 -2.99D-04  1.81D-04  1.55D-05    14.9
 Grid integrated density:      31.999959534194
 Requested integration accuracy:   0.10E-05
 d=40,ls=0.0,diis    12   -264.2998785888 -1.19D-04  7.95D-05  2.96D-06    16.4
 d=40,ls=0.0,diis    13   -264.2999261738 -4.76D-05  3.74D-05  4.77D-07    17.8
 d=40,ls=0.0,diis    14   -264.2999451895 -1.90D-05  1.66D-05  6.99D-08    19.1
 d=40,ls=0.0,diis    15   -264.2999527926 -7.60D-06  6.91D-06  1.07D-08    20.5
 d=40,ls=0.0,diis    16   -264.2999558335 -3.04D-06  2.75D-06  1.69D-09    21.9
 d=40,ls=0.0,diis    17   -264.2999570498 -1.22D-06  1.09D-06  2.72D-10    23.3
 d=40,ls=0.0,diis    18   -264.2999575364 -4.87D-07  4.37D-07  4.36D-11    24.8


         Total DFT energy =     -264.299957536355
      One electron energy =     -595.079592410395
           Coulomb energy =      249.119272817016
    Exchange-Corr. energy =      -31.486505401271
 Nuclear repulsion energy =      113.146867458296

 Numeric. integr. density =       32.000001305780

     Total iterative time =     24.5s



                       DFT Final Molecular Orbital Analysis
                       ------------------------------------

 Vector    1  Occ=2.000000D+00  E=-1.858940D+01
              MO Center= -9.4D-02,  8.0D-05,  1.3D+00, r^2= 1.5D-02
   Bfn.  Coefficient  Atom+Function         Bfn.  Coefficient  Atom+Function  
  ----- ------------  ---------------      ----- ------------  ---------------
    56      0.981346  2 O  s                 58      0.064327  2 O  s          
    59     -0.062881  2 O  s                 14     -0.026957  1 C  pz         

 Vector    2  Occ=2.000000D+00  E=-1.849726D+01
              MO Center=  5.9D-01,  9.9D-01, -5.5D-01, r^2= 1.5D-02
   Bfn.  Coefficient  Atom+Function         Bfn.  Coefficient  Atom+Function  
  ----- ------------  ---------------      ----- ------------  ---------------
   111      0.980016  3 O  s                113      0.064616  3 O  s          
   114     -0.062248  3 O  s                169      0.039980  4 O  s          
    54      0.030113  1 C  fyzz       

 Vector    3  Occ=2.000000D+00  E=-1.849146D+01
              MO Center= -5.3D-01, -1.0D+00, -5.5D-01, r^2= 1.5D-02
   Bfn.  Coefficient  Atom+Function         Bfn.  Coefficient  Atom+Function  
  ----- ------------  ---------------      ----- ------------  ---------------
   166      0.980609  4 O  s                168      0.065220  4 O  s          
   169     -0.039118  4 O  s                 50      0.031420  1 C  fxyz       
   114      0.030215  3 O  s                 13      0.028460  1 C  py         
    34     -0.027653  1 C  dyz               53      0.026652  1 C  fyyz       
    54     -0.025157  1 C  fyzz       

 Vector    4  Occ=2.000000D+00  E=-9.800360D+00
              MO Center= -3.4D-06,  8.0D-06,  1.1D-04, r^2= 2.8D-02
   Bfn.  Coefficient  Atom+Function         Bfn.  Coefficient  Atom+Function  
  ----- ------------  ---------------      ----- ------------  ---------------
     1      1.010908  1 C  s                  2      0.081449  1 C  s          
   169     -0.072524  4 O  s                  3      0.064780  1 C  s          
   114     -0.041956  3 O  s                 25      0.032110  1 C  dxy        
    27      0.029993  1 C  dyy                4      0.029620  1 C  s          
   178     -0.029466  4 O  py         

 Vector    5  Occ=2.000000D+00  E=-8.069103D-01
              MO Center= -3.4D-04,  9.2D-02,  7.7D-01, r^2= 1.0D+00
   Bfn.  Coefficient  Atom+Function         Bfn.  Coefficient  Atom+Function  
  ----- ------------  ---------------      ----- ------------  ---------------
    57      0.382348  2 O  s                  2      0.225516  1 C  s          
    59      0.204534  2 O  s                112      0.133609  3 O  s          
   167      0.121874  4 O  s                 58      0.104711  2 O  s          
   114      0.073354  3 O  s                  4      0.068818  1 C  s          
   221      0.067590  5 H  s                  3      0.066070  1 C  s          

 Vector    6  Occ=2.000000D+00  E=-6.879193D-01
              MO Center=  1.9D-02,  3.6D-02,  3.6D-02, r^2= 1.7D+00
   Bfn.  Coefficient  Atom+Function         Bfn.  Coefficient  Atom+Function  
  ----- ------------  ---------------      ----- ------------  ---------------
    57      0.265484  2 O  s                112     -0.262714  3 O  s          
   167     -0.261877  4 O  s                 59      0.197078  2 O  s          
     2     -0.169025  1 C  s                169     -0.165709  4 O  s          
   114     -0.149133  3 O  s                  8      0.104340  1 C  pz         
   113     -0.074461  3 O  s                168     -0.074224  4 O  s          

 Vector    7  Occ=2.000000D+00  E=-6.502617D-01
              MO Center=  2.1D-02, -1.0D-02, -3.7D-01, r^2= 1.4D+00
   Bfn.  Coefficient  Atom+Function         Bfn.  Coefficient  Atom+Function  
  ----- ------------  ---------------      ----- ------------  ---------------
   112      0.330699  3 O  s                167     -0.328576  4 O  s          
   114      0.252733  3 O  s                169     -0.244431  4 O  s          
     7      0.143926  1 C  py               113      0.091646  3 O  s          
   168     -0.091202  4 O  s                  6      0.080629  1 C  px         
    10      0.073281  1 C  py               172     -0.047201  4 O  py         

 Vector    8  Occ=2.000000D+00  E=-3.495929D-01
              MO Center= -2.5D-02,  8.1D-02,  1.0D+00, r^2= 1.3D+00
   Bfn.  Coefficient  Atom+Function         Bfn.  Coefficient  Atom+Function  
  ----- ------------  ---------------      ----- ------------  ---------------
    63      0.244273  2 O  pz                66      0.230226  2 O  pz         
   222      0.186391  5 H  s                  2     -0.181240  1 C  s          
   169      0.144303  4 O  s                  8     -0.141737  1 C  pz         
   167      0.141718  4 O  s                221      0.138415  5 H  s          
    62      0.131217  2 O  py                65      0.117834  2 O  py         

 Vector    9  Occ=2.000000D+00  E=-2.097457D-01
              MO Center=  2.3D-01,  4.6D-01,  3.1D-01, r^2= 2.2D+00
   Bfn.  Coefficient  Atom+Function         Bfn.  Coefficient  Atom+Function  
  ----- ------------  ---------------      ----- ------------  ---------------
   112      0.221003  3 O  s                 59      0.219169  2 O  s          
   114      0.215476  3 O  s                  4     -0.190890  1 C  s          
     2     -0.188187  1 C  s                 62     -0.175391  2 O  py         
    65     -0.166519  2 O  py                60      0.160664  2 O  s          
    57      0.146235  2 O  s                115      0.145925  3 O  s          

 Vector   10  Occ=2.000000D+00  E=-1.890894D-01
              MO Center= -1.7D-02,  2.1D-02,  4.1D-01, r^2= 1.6D+00
   Bfn.  Coefficient  Atom+Function         Bfn.  Coefficient  Atom+Function  
  ----- ------------  ---------------      ----- ------------  ---------------
    61      0.196834  2 O  px                64      0.195786  2 O  px         
     6      0.187892  1 C  px                 9      0.155943  1 C  px         
    67      0.123619  2 O  px                62     -0.112916  2 O  py         
    65     -0.112399  2 O  py               116      0.110000  3 O  px         
     7     -0.107171  1 C  py               119      0.106171  3 O  px         

 Vector   11  Occ=2.000000D+00  E=-1.817483D-01
              MO Center= -2.3D-01, -4.1D-01, -6.1D-02, r^2= 2.2D+00
   Bfn.  Coefficient  Atom+Function         Bfn.  Coefficient  Atom+Function  
  ----- ------------  ---------------      ----- ------------  ---------------
   167      0.198998  4 O  s                169      0.181761  4 O  s          
   172     -0.180313  4 O  py               175     -0.169080  4 O  py         
     8      0.161644  1 C  pz                 2     -0.134559  1 C  s          
    63     -0.131029  2 O  pz                66     -0.125460  2 O  pz         
    11      0.120259  1 C  pz               117      0.107049  3 O  py         

 Vector   12  Occ=2.000000D+00  E=-1.269936D-01
              MO Center= -7.9D-03, -1.7D-02, -8.7D-04, r^2= 2.7D+00
   Bfn.  Coefficient  Atom+Function         Bfn.  Coefficient  Atom+Function  
  ----- ------------  ---------------      ----- ------------  ---------------
   117     -0.164865  3 O  py               120     -0.156146  3 O  py         
     7      0.155300  1 C  py               172     -0.148147  4 O  py         
   175     -0.142360  4 O  py                59      0.140546  2 O  s          
    62     -0.139587  2 O  py               169      0.139701  4 O  s          
   114     -0.137814  3 O  s                 65     -0.133648  2 O  py         

 Vector   13  Occ=2.000000D+00  E=-6.425225D-02
              MO Center=  6.8D-04,  6.0D-02,  4.8D-01, r^2= 2.1D+00
   Bfn.  Coefficient  Atom+Function         Bfn.  Coefficient  Atom+Function  
  ----- ------------  ---------------      ----- ------------  ---------------
    64      0.253223  2 O  px                61      0.250696  2 O  px         
    67      0.184752  2 O  px               116     -0.155450  3 O  px         
   119     -0.153616  3 O  px                65     -0.144978  2 O  py         
    62     -0.143516  2 O  py               171     -0.136560  4 O  px         
   174     -0.134544  4 O  px               122     -0.108675  3 O  px         

 Vector   14  Occ=2.000000D+00  E=-2.592331D-02
              MO Center=  5.7D-02,  5.7D-02, -3.5D-01, r^2= 2.4D+00
   Bfn.  Coefficient  Atom+Function         Bfn.  Coefficient  Atom+Function  
  ----- ------------  ---------------      ----- ------------  ---------------
   118      0.251578  3 O  pz               121      0.250181  3 O  pz         
   173      0.229373  4 O  pz               176      0.228928  4 O  pz         
   124      0.181471  3 O  pz               179      0.153764  4 O  pz         
    63      0.130891  2 O  pz                66      0.131167  2 O  pz         
   127      0.085110  3 O  pz                69      0.075518  2 O  pz         

 Vector   15  Occ=2.000000D+00  E=-1.279815D-02
              MO Center=  9.6D-04, -6.4D-02, -5.1D-01, r^2= 2.0D+00
   Bfn.  Coefficient  Atom+Function         Bfn.  Coefficient  Atom+Function  
  ----- ------------  ---------------      ----- ------------  ---------------
   171     -0.240204  4 O  px               174     -0.240035  4 O  px         
   116      0.227700  3 O  px               119      0.227304  3 O  px         
   122      0.167606  3 O  px               177     -0.167951  4 O  px         
   172      0.133781  4 O  py               175      0.133568  4 O  py         
   117     -0.127552  3 O  py               120     -0.127343  3 O  py         

 Vector   16  Occ=2.000000D+00  E= 1.671516D-02
              MO Center= -2.6D-02, -1.0D-01, -4.3D-01, r^2= 2.2D+00
   Bfn.  Coefficient  Atom+Function         Bfn.  Coefficient  Atom+Function  
  ----- ------------  ---------------      ----- ------------  ---------------
   173      0.233019  4 O  pz               176      0.230236  4 O  pz         
   118     -0.210093  3 O  pz               121     -0.206374  3 O  pz         
   179      0.168470  4 O  pz               124     -0.165775  3 O  pz         
    60     -0.157448  2 O  s                120     -0.144111  3 O  py         
   117     -0.141373  3 O  py               175     -0.141511  4 O  py         

 Vector   17  Occ=0.000000D+00  E= 1.015269D-01
              MO Center=  6.7D-01,  1.5D+00,  2.8D+00, r^2= 1.1D+01
   Bfn.  Coefficient  Atom+Function         Bfn.  Coefficient  Atom+Function  
  ----- ------------  ---------------      ----- ------------  ---------------
     5      3.849345  1 C  s                224     -2.636272  5 H  s          
     4      2.012883  1 C  s                115     -1.472499  3 O  s          
    60     -1.401461  2 O  s                 17      0.817362  1 C  pz         
    72      0.805294  2 O  pz               223     -0.603964  5 H  s          
   170     -0.467653  4 O  s                 69      0.357795  2 O  pz         

 Vector   18  Occ=0.000000D+00  E= 1.640259D-01
              MO Center= -7.9D-01, -1.4D+00, -3.3D-01, r^2= 1.4D+01
   Bfn.  Coefficient  Atom+Function         Bfn.  Coefficient  Atom+Function  
  ----- ------------  ---------------      ----- ------------  ---------------
   170      6.082360  4 O  s                  5     -4.789319  1 C  s          
     4     -4.425232  1 C  s                115      2.096222  3 O  s          
    60      1.883254  2 O  s                 16      1.800476  1 C  py         
    33     -1.380971  1 C  dyy               35     -1.065234  1 C  dzz        
    15      0.980374  1 C  px                72     -0.934232  2 O  pz         

 Vector   19  Occ=0.000000D+00  E= 1.648670D-01
              MO Center=  5.8D-01,  9.5D-01, -6.1D-01, r^2= 1.5D+01
   Bfn.  Coefficient  Atom+Function         Bfn.  Coefficient  Atom+Function  
  ----- ------------  ---------------      ----- ------------  ---------------
   115      4.655145  3 O  s                  5     -2.673633  1 C  s          
     4     -2.315611  1 C  s                170      2.076969  4 O  s          
    17      1.802010  1 C  pz                16     -1.359460  1 C  py         
    60     -1.201163  2 O  s                 14      1.189529  1 C  pz         
    15     -0.896091  1 C  px               181      0.779687  4 O  py         

 Vector   20  Occ=0.000000D+00  E= 1.683924D-01
              MO Center=  5.4D-02,  1.5D-01,  1.7D-01, r^2= 1.5D+01
   Bfn.  Coefficient  Atom+Function         Bfn.  Coefficient  Atom+Function  
  ----- ------------  ---------------      ----- ------------  ---------------
    15      2.025312  1 C  px                16     -1.153612  1 C  py         
   180     -0.665616  4 O  px               125     -0.562619  3 O  px         
    70     -0.481465  2 O  px               181      0.371102  4 O  py         
   126      0.305651  3 O  py                71      0.268655  2 O  py         
   231      0.210145  5 H  px               122      0.164846  3 O  px         

 Vector   21  Occ=0.000000D+00  E= 1.842378D-01
              MO Center=  5.0D-01,  1.1D+00,  1.9D+00, r^2= 1.5D+01
   Bfn.  Coefficient  Atom+Function         Bfn.  Coefficient  Atom+Function  
  ----- ------------  ---------------      ----- ------------  ---------------
     5     10.198663  1 C  s                 60     -6.001315  2 O  s          
     4      5.610381  1 C  s                115     -4.741485  3 O  s          
   224     -3.876752  5 H  s                 17      2.923607  1 C  pz         
    72      2.072670  2 O  pz                16      1.302690  1 C  py         
    14      1.130980  1 C  pz                34     -0.933756  1 C  dyz        

 Vector   22  Occ=0.000000D+00  E= 2.065717D-01
              MO Center=  1.0D-01,  2.8D-01,  8.1D-01, r^2= 1.4D+01
   Bfn.  Coefficient  Atom+Function         Bfn.  Coefficient  Atom+Function  
  ----- ------------  ---------------      ----- ------------  ---------------
    60     10.980124  2 O  s                223     -8.397861  5 H  s          
     5     -5.264463  1 C  s                115      3.354124  3 O  s          
     4     -2.656619  1 C  s                 17     -2.569514  1 C  pz         
    71      2.548478  2 O  py               232      1.779082  5 H  py         
    16     -1.571554  1 C  py               170      1.490727  4 O  s          

 Vector   23  Occ=0.000000D+00  E= 2.263477D-01
              MO Center=  9.2D-02,  3.3D-01,  1.2D+00, r^2= 1.4D+01
   Bfn.  Coefficient  Atom+Function         Bfn.  Coefficient  Atom+Function  
  ----- ------------  ---------------      ----- ------------  ---------------
   115     -4.866001  3 O  s                 60     -4.793894  2 O  s          
     4      4.683662  1 C  s                 72      4.250430  2 O  pz         
    33      2.875194  1 C  dyy               30      2.560019  1 C  dxx        
    35      2.275723  1 C  dzz               14      1.662457  1 C  pz         
   169      1.597234  4 O  s                 13      1.381666  1 C  py         

 Vector   24  Occ=0.000000D+00  E= 2.342149D-01
              MO Center=  9.7D-03,  1.2D-02, -4.6D-02, r^2= 2.9D+00
   Bfn.  Coefficient  Atom+Function         Bfn.  Coefficient  Atom+Function  
  ----- ------------  ---------------      ----- ------------  ---------------
    15      0.903043  1 C  px                12      0.855425  1 C  px         
   125     -0.564865  3 O  px                16     -0.515488  1 C  py         
    13     -0.482116  1 C  py                70     -0.464106  2 O  px         
   180     -0.446869  4 O  px                71      0.308087  2 O  py         
   126      0.303373  3 O  py                 9      0.301239  1 C  px         

 Vector   25  Occ=0.000000D+00  E= 2.415092D-01
              MO Center=  8.5D-02,  6.6D-02, -6.6D-01, r^2= 1.4D+01
   Bfn.  Coefficient  Atom+Function         Bfn.  Coefficient  Atom+Function  
  ----- ------------  ---------------      ----- ------------  ---------------
     4      7.740314  1 C  s                 60     -5.936516  2 O  s          
   170     -5.604336  4 O  s                 35      4.929398  1 C  dzz        
   115     -4.805360  3 O  s                 33      3.344838  1 C  dyy        
    30      3.327325  1 C  dxx              181     -2.287393  4 O  py         
   126      2.243194  3 O  py               223      1.832955  5 H  s          

 Vector   26  Occ=0.000000D+00  E= 2.499555D-01
              MO Center= -1.7D-02,  1.0D-01,  1.1D+00, r^2= 1.1D+01
   Bfn.  Coefficient  Atom+Function         Bfn.  Coefficient  Atom+Function  
  ----- ------------  ---------------      ----- ------------  ---------------
    70      2.248215  2 O  px                71     -1.250798  2 O  py         
    32     -1.069969  1 C  dxz               15     -0.721971  1 C  px         
    34      0.723728  1 C  dyz              125     -0.707110  3 O  px         
   126      0.401209  3 O  py                16      0.395099  1 C  py         
    87     -0.364758  2 O  dxz               12     -0.340803  1 C  px         

 Vector   27  Occ=0.000000D+00  E= 2.623986D-01
              MO Center= -7.7D-02, -2.0D-01, -5.3D-01, r^2= 1.2D+01
   Bfn.  Coefficient  Atom+Function         Bfn.  Coefficient  Atom+Function  
  ----- ------------  ---------------      ----- ------------  ---------------
   180     -1.527269  4 O  px               125      1.425656  3 O  px         
    31     -1.019345  1 C  dxy              181      0.893585  4 O  py         
    30     -0.813808  1 C  dxx              126     -0.816274  3 O  py         
    33      0.731885  1 C  dyy              231      0.506081  5 H  px         
   177     -0.295180  4 O  px                67     -0.288178  2 O  px         

 Vector   28  Occ=0.000000D+00  E= 2.896219D-01
              MO Center= -4.4D-01, -7.9D-01,  1.4D-01, r^2= 1.3D+01
   Bfn.  Coefficient  Atom+Function         Bfn.  Coefficient  Atom+Function  
  ----- ------------  ---------------      ----- ------------  ---------------
     4      8.358003  1 C  s                115     -6.834486  3 O  s          
   170     -6.613410  4 O  s                  5      6.426383  1 C  s          
    60     -6.303473  2 O  s                 33      3.991385  1 C  dyy        
   182     -3.258820  4 O  pz                30      2.902160  1 C  dxx        
    17      2.565365  1 C  pz               181     -2.427014  4 O  py         

 Vector   29  Occ=0.000000D+00  E= 2.978725D-01
              MO Center=  1.8D-01,  3.7D-01,  2.2D-01, r^2= 1.4D+01
   Bfn.  Coefficient  Atom+Function         Bfn.  Coefficient  Atom+Function  
  ----- ------------  ---------------      ----- ------------  ---------------
   223     -9.875848  5 H  s                 60      8.992167  2 O  s          
   115     -5.888057  3 O  s                 71      4.344905  2 O  py         
     4      4.233572  1 C  s                127     -3.891447  3 O  pz         
   170     -3.624976  4 O  s                 14     -3.131775  1 C  pz         
    33      2.669949  1 C  dyy               70      2.567789  2 O  px         

 Vector   30  Occ=0.000000D+00  E= 3.110725D-01
              MO Center= -8.0D-02, -2.0D-01, -4.8D-01, r^2= 1.5D+01
   Bfn.  Coefficient  Atom+Function         Bfn.  Coefficient  Atom+Function  
  ----- ------------  ---------------      ----- ------------  ---------------
   170     -6.122228  4 O  s                115      6.052965  3 O  s          
    34      5.182623  1 C  dyz              126     -4.333412  3 O  py         
   181     -4.335529  4 O  py                13     -4.243076  1 C  py         
    16      4.153663  1 C  py                71     -2.884953  2 O  py         
    32      2.844806  1 C  dxz              180     -2.428404  4 O  px         

 Vector   31  Occ=0.000000D+00  E= 3.269958D-01
              MO Center= -1.3D-01, -2.7D-01, -4.0D-01, r^2= 1.4D+01
   Bfn.  Coefficient  Atom+Function         Bfn.  Coefficient  Atom+Function  
  ----- ------------  ---------------      ----- ------------  ---------------
   223      5.263151  5 H  s                 60      4.939911  2 O  s          
    72     -4.628150  2 O  pz               182     -4.396395  4 O  pz         
    17      4.163031  1 C  pz               127     -3.361545  3 O  pz         
    14     -3.009887  1 C  pz                 5     -2.695201  1 C  s          
    35     -2.481722  1 C  dzz              170     -2.470469  4 O  s          

 Vector   32  Occ=0.000000D+00  E= 3.301072D-01
              MO Center= -4.4D-02, -4.5D-02, -1.9D-01, r^2= 1.2D+01
   Bfn.  Coefficient  Atom+Function         Bfn.  Coefficient  Atom+Function  
  ----- ------------  ---------------      ----- ------------  ---------------
    15      2.877241  1 C  px               180     -2.060770  4 O  px         
   125     -1.878130  3 O  px                16     -1.587753  1 C  py         
    12      1.466137  1 C  px                70     -1.196191  2 O  px         
   181      1.152384  4 O  py               126      1.021966  3 O  py         
    13     -0.831338  1 C  py                71      0.630802  2 O  py         

 Vector   33  Occ=0.000000D+00  E= 3.463480D-01
              MO Center= -3.7D-03, -6.9D-02, -1.1D-01, r^2= 9.8D+00
   Bfn.  Coefficient  Atom+Function         Bfn.  Coefficient  Atom+Function  
  ----- ------------  ---------------      ----- ------------  ---------------
     5     11.648315  1 C  s                  4     11.373804  1 C  s          
   170    -11.151802  4 O  s                115     -8.304032  3 O  s          
    60     -4.606640  2 O  s                 31      3.104983  1 C  dxy        
    14     -2.296486  1 C  pz                33      2.283187  1 C  dyy        
    59     -2.167872  2 O  s                223      2.006236  5 H  s          

 Vector   34  Occ=0.000000D+00  E= 3.650715D-01
              MO Center=  1.9D-01,  5.0D-01,  1.3D+00, r^2= 8.4D+00
   Bfn.  Coefficient  Atom+Function         Bfn.  Coefficient  Atom+Function  
  ----- ------------  ---------------      ----- ------------  ---------------
   231      2.303725  5 H  px                70     -1.999797  2 O  px         
   232     -1.355401  5 H  py                71      1.059939  2 O  py         
    67     -1.023743  2 O  px               125     -1.003159  3 O  px         
    15      0.803507  1 C  px               126      0.677418  3 O  py         
    68      0.634785  2 O  py                12      0.511380  1 C  px         

 Vector   35  Occ=0.000000D+00  E= 3.727331D-01
              MO Center=  2.8D-01,  5.1D-01,  1.5D-01, r^2= 1.1D+01
   Bfn.  Coefficient  Atom+Function         Bfn.  Coefficient  Atom+Function  
  ----- ------------  ---------------      ----- ------------  ---------------
   115      9.250069  3 O  s                 60     -6.966906  2 O  s          
    13     -3.873494  1 C  py                14      3.222949  1 C  pz         
    72      2.632719  2 O  pz               170     -2.530695  4 O  s          
    12     -2.376536  1 C  px               126     -1.966934  3 O  py         
   114     -1.946667  3 O  s                  5      1.606178  1 C  s          

 Vector   36  Occ=0.000000D+00  E= 3.847009D-01
              MO Center= -1.2D-01, -1.8D-01,  2.0D-01, r^2= 1.2D+01
   Bfn.  Coefficient  Atom+Function         Bfn.  Coefficient  Atom+Function  
  ----- ------------  ---------------      ----- ------------  ---------------
    60     14.887482  2 O  s                  5     -8.286155  1 C  s          
   170     -6.140938  4 O  s                223     -5.802377  5 H  s          
     4     -4.633917  1 C  s                115      4.286495  3 O  s          
    14     -4.072920  1 C  pz                17     -3.194747  1 C  pz         
    13     -2.586730  1 C  py                34      2.256895  1 C  dyz        

 Vector   37  Occ=0.000000D+00  E= 3.997882D-01
              MO Center=  9.0D-02,  2.9D-01,  1.2D+00, r^2= 9.4D+00
   Bfn.  Coefficient  Atom+Function         Bfn.  Coefficient  Atom+Function  
  ----- ------------  ---------------      ----- ------------  ---------------
    60     18.584339  2 O  s                223    -13.929773  5 H  s          
   170     11.330319  4 O  s                  4     -5.537145  1 C  s          
    33     -4.788512  1 C  dyy               30     -4.326443  1 C  dxx        
    71      4.298522  2 O  py               115      4.127560  3 O  s          
    35     -3.572486  1 C  dzz                5     -3.536392  1 C  s          

 Vector   38  Occ=0.000000D+00  E= 4.361753D-01
              MO Center=  1.2D-01,  3.9D-01,  1.4D+00, r^2= 9.4D+00
   Bfn.  Coefficient  Atom+Function         Bfn.  Coefficient  Atom+Function  
  ----- ------------  ---------------      ----- ------------  ---------------
    60     11.507480  2 O  s                115     10.207433  3 O  s          
   223     -6.266967  5 H  s                 72     -5.567088  2 O  pz         
   233      4.885847  5 H  pz               170     -3.947732  4 O  s          
    34      3.627558  1 C  dyz               30     -3.461607  1 C  dxx        
    33     -3.016244  1 C  dyy               35     -2.262711  1 C  dzz        

 Vector   39  Occ=0.000000D+00  E= 4.510495D-01
              MO Center=  3.0D-01,  6.5D-01,  1.1D+00, r^2= 1.1D+01
   Bfn.  Coefficient  Atom+Function         Bfn.  Coefficient  Atom+Function  
  ----- ------------  ---------------      ----- ------------  ---------------
   170     12.108352  4 O  s                115     11.247744  3 O  s          
     4     -7.467371  1 C  s                 33     -6.574559  1 C  dyy        
    30     -6.444557  1 C  dxx               35     -6.003507  1 C  dzz        
    59     -4.911665  2 O  s                 60      4.829284  2 O  s          
   223      4.434893  5 H  s                  5     -3.644241  1 C  s          

 Vector   40  Occ=0.000000D+00  E= 4.686158D-01
              MO Center=  6.2D-02,  9.6D-02, -2.4D-01, r^2= 6.5D+00
   Bfn.  Coefficient  Atom+Function         Bfn.  Coefficient  Atom+Function  
  ----- ------------  ---------------      ----- ------------  ---------------
    32      3.710736  1 C  dxz               34     -2.075821  1 C  dyz        
    67     -1.384951  2 O  px                70     -1.114913  2 O  px         
   177      0.889690  4 O  px                87      0.832473  2 O  dxz        
    68      0.750474  2 O  py                71      0.611648  2 O  py         
    33     -0.608024  1 C  dyy               12      0.592781  1 C  px         

 Vector   41  Occ=0.000000D+00  E= 4.893948D-01
              MO Center=  5.4D-02,  1.8D-01,  5.4D-01, r^2= 6.4D+00
   Bfn.  Coefficient  Atom+Function         Bfn.  Coefficient  Atom+Function  
  ----- ------------  ---------------      ----- ------------  ---------------
   170      7.829682  4 O  s                223      5.614794  5 H  s          
    33     -5.032378  1 C  dyy               35     -4.285410  1 C  dzz        
     4     -4.171044  1 C  s                233     -3.785216  5 H  pz         
    30     -3.456320  1 C  dxx                5      3.103571  1 C  s          
    31     -2.334825  1 C  dxy               60     -1.889932  2 O  s          

 Vector   42  Occ=0.000000D+00  E= 5.109886D-01
              MO Center=  2.9D-01,  4.9D-01,  4.5D-02, r^2= 6.6D+00
   Bfn.  Coefficient  Atom+Function         Bfn.  Coefficient  Atom+Function  
  ----- ------------  ---------------      ----- ------------  ---------------
    12      3.440859  1 C  px                13     -1.886962  1 C  py         
    31      1.805538  1 C  dxy               30      1.555418  1 C  dxx        
   122     -1.550259  3 O  px               125     -1.429070  3 O  px         
    33     -1.394929  1 C  dyy               51     -0.903792  1 C  fxzz       
   231     -0.891987  5 H  px               123      0.861669  3 O  py         

 Vector   43  Occ=0.000000D+00  E= 5.349037D-01
              MO Center=  1.4D-01,  1.2D-01, -8.9D-01, r^2= 7.6D+00
   Bfn.  Coefficient  Atom+Function         Bfn.  Coefficient  Atom+Function  
  ----- ------------  ---------------      ----- ------------  ---------------
    60    -11.214031  2 O  s                  4     10.627144  1 C  s          
    35      8.553781  1 C  dzz              115     -6.591149  3 O  s          
   170     -4.314967  4 O  s                223      4.077830  5 H  s          
     5      2.812821  1 C  s                 59     -2.418229  2 O  s          
    14      2.159928  1 C  pz                30      2.163780  1 C  dxx        

 Vector   44  Occ=0.000000D+00  E= 5.466372D-01
              MO Center= -2.7D-01, -4.4D-01,  3.3D-01, r^2= 7.4D+00
   Bfn.  Coefficient  Atom+Function         Bfn.  Coefficient  Atom+Function  
  ----- ------------  ---------------      ----- ------------  ---------------
    12      3.418364  1 C  px                31     -2.461392  1 C  dxy        
    30     -2.026075  1 C  dxx               33      1.960140  1 C  dyy        
    13     -1.933707  1 C  py                70     -1.856566  2 O  px         
   177     -1.778693  4 O  px               180     -1.635284  4 O  px         
   231      1.339301  5 H  px                15      0.992702  1 C  px         

 Vector   45  Occ=0.000000D+00  E= 5.654648D-01
              MO Center= -1.0D-02, -6.5D-02, -3.6D-01, r^2= 4.3D+00
   Bfn.  Coefficient  Atom+Function         Bfn.  Coefficient  Atom+Function  
  ----- ------------  ---------------      ----- ------------  ---------------
     4     19.344210  1 C  s                170     -9.277139  4 O  s          
   115     -8.728049  3 O  s                  5      7.573893  1 C  s          
    31      4.671975  1 C  dxy               60     -4.370266  2 O  s          
    59     -4.346460  2 O  s                 33      4.080370  1 C  dyy        
    35      3.128199  1 C  dzz               69      2.969885  2 O  pz         

 Vector   46  Occ=0.000000D+00  E= 5.766742D-01
              MO Center= -1.9D-01, -1.9D-01,  1.1D+00, r^2= 6.8D+00
   Bfn.  Coefficient  Atom+Function         Bfn.  Coefficient  Atom+Function  
  ----- ------------  ---------------      ----- ------------  ---------------
     4     19.686615  1 C  s                223    -12.718052  5 H  s          
   115    -10.511075  3 O  s                170     -8.095531  4 O  s          
     5      7.882188  1 C  s                 33      6.918580  1 C  dyy        
    31      6.312498  1 C  dxy               35      4.200578  1 C  dzz        
    71      3.525364  2 O  py               222      3.525842  5 H  s          

 Vector   47  Occ=0.000000D+00  E= 6.034571D-01
              MO Center=  2.2D-01,  4.4D-01,  5.4D-01, r^2= 7.4D+00
   Bfn.  Coefficient  Atom+Function         Bfn.  Coefficient  Atom+Function  
  ----- ------------  ---------------      ----- ------------  ---------------
     4     16.395549  1 C  s                 60     -7.903142  2 O  s          
   115     -7.545160  3 O  s                 31      6.397021  1 C  dxy        
    33      6.175802  1 C  dyy              223      6.180623  5 H  s          
    13      5.147091  1 C  py               170     -4.453397  4 O  s          
   124     -3.502425  3 O  pz                34      3.471620  1 C  dyz        

 Vector   48  Occ=0.000000D+00  E= 6.341343D-01
              MO Center= -4.3D-03, -2.4D-03,  9.4D-03, r^2= 5.3D+00
   Bfn.  Coefficient  Atom+Function         Bfn.  Coefficient  Atom+Function  
  ----- ------------  ---------------      ----- ------------  ---------------
   223     15.298702  5 H  s                 60     -8.525495  2 O  s          
    14     -7.671364  1 C  pz               115     -7.190944  3 O  s          
    34     -5.875587  1 C  dyz              169     -3.330398  4 O  s          
   233     -3.076268  5 H  pz                 5      2.883766  1 C  s          
    32     -2.860145  1 C  dxz              232     -2.548171  5 H  py         

 Vector   49  Occ=0.000000D+00  E= 6.437092D-01
              MO Center= -4.6D-02, -5.4D-02,  1.8D-01, r^2= 8.8D+00
   Bfn.  Coefficient  Atom+Function         Bfn.  Coefficient  Atom+Function  
  ----- ------------  ---------------      ----- ------------  ---------------
    60     24.266330  2 O  s                223    -23.177345  5 H  s          
    34     12.857890  1 C  dyz              170     -9.560117  4 O  s          
    14     -8.283279  1 C  pz                32      7.241424  1 C  dxz        
   169     -5.450658  4 O  s                233      4.785779  5 H  pz         
    59      4.481897  2 O  s                 72     -4.233959  2 O  pz         

 Vector   50  Occ=0.000000D+00  E= 6.620283D-01
              MO Center=  8.9D-02,  2.3D-01,  4.8D-01, r^2= 7.3D+00
   Bfn.  Coefficient  Atom+Function         Bfn.  Coefficient  Atom+Function  
  ----- ------------  ---------------      ----- ------------  ---------------
   223     17.985276  5 H  s                 14    -11.016124  1 C  pz         
     4      8.521406  1 C  s                170     -6.686410  4 O  s          
    13     -5.562867  1 C  py                60     -5.261226  2 O  s          
    31      4.944104  1 C  dxy               33      4.526907  1 C  dyy        
   115     -4.278031  3 O  s                233     -3.917754  5 H  pz         

 Vector   51  Occ=0.000000D+00  E= 6.639516D-01
              MO Center=  4.5D-02,  7.3D-02, -2.0D-01, r^2= 7.4D+00
   Bfn.  Coefficient  Atom+Function         Bfn.  Coefficient  Atom+Function  
  ----- ------------  ---------------      ----- ------------  ---------------
    13     13.784240  1 C  py               170     10.984708  4 O  s          
    34     -8.938298  1 C  dyz              115     -8.954178  3 O  s          
    12      8.119518  1 C  px                60      7.505535  2 O  s          
     4     -7.134418  1 C  s                 14     -6.536058  1 C  pz         
   114     -4.913938  3 O  s                 32     -4.709679  1 C  dxz        

 Vector   52  Occ=0.000000D+00  E= 7.208077D-01
              MO Center= -8.1D-02,  2.9D-02,  1.4D+00, r^2= 5.0D+00
   Bfn.  Coefficient  Atom+Function         Bfn.  Coefficient  Atom+Function  
  ----- ------------  ---------------      ----- ------------  ---------------
    87      1.979404  2 O  dxz               32      1.449045  1 C  dxz        
    67      1.220985  2 O  px                89     -1.110276  2 O  dyz        
   231     -0.864978  5 H  px               106     -0.751574  2 O  fxzz       
    26      0.709960  1 C  dxz               68     -0.697352  2 O  py         
    34     -0.645968  1 C  dyz               70     -0.629889  2 O  px         

 Vector   53  Occ=0.000000D+00  E= 7.511248D-01
              MO Center=  1.2D-02,  4.3D-02,  1.7D-01, r^2= 6.6D+00
   Bfn.  Coefficient  Atom+Function         Bfn.  Coefficient  Atom+Function  
  ----- ------------  ---------------      ----- ------------  ---------------
   231      1.493222  5 H  px                86     -1.332885  2 O  dxy        
    30      1.261894  1 C  dxx               31      1.235899  1 C  dxy        
    88      1.149108  2 O  dyy              125     -1.134360  3 O  px         
    70     -1.089585  2 O  px               197      1.060901  4 O  dxz        
    67     -1.049117  2 O  px                85     -1.023102  2 O  dxx        

 Vector   54  Occ=0.000000D+00  E= 7.631221D-01
              MO Center=  1.6D-01,  3.4D-01,  5.5D-01, r^2= 6.1D+00
   Bfn.  Coefficient  Atom+Function         Bfn.  Coefficient  Atom+Function  
  ----- ------------  ---------------      ----- ------------  ---------------
    60     16.537141  2 O  s                223    -11.777647  5 H  s          
   170      5.815101  4 O  s                 13      3.901638  1 C  py         
    14     -3.878108  1 C  pz                53      3.722026  1 C  fyyz       
     5     -3.611770  1 C  s                  4      3.289245  1 C  s          
    30     -3.161395  1 C  dxx               69      3.144354  2 O  pz         

 Vector   55  Occ=0.000000D+00  E= 7.910360D-01
              MO Center= -6.6D-02, -9.0D-02,  3.1D-01, r^2= 6.9D+00
   Bfn.  Coefficient  Atom+Function         Bfn.  Coefficient  Atom+Function  
  ----- ------------  ---------------      ----- ------------  ---------------
     4      9.815669  1 C  s                115      8.283424  3 O  s          
   170      7.160641  4 O  s                 30     -6.566476  1 C  dxx        
    33     -6.336929  1 C  dyy              169     -5.741203  4 O  s          
   178     -5.307410  4 O  py                35     -5.177605  1 C  dzz        
   123      3.410538  3 O  py               198     -3.234060  4 O  dyy        

 Vector   56  Occ=0.000000D+00  E= 7.983286D-01
              MO Center=  3.9D-01,  6.7D-01,  3.0D-01, r^2= 6.1D+00
   Bfn.  Coefficient  Atom+Function         Bfn.  Coefficient  Atom+Function  
  ----- ------------  ---------------      ----- ------------  ---------------
   122      1.335437  3 O  px               223     -1.268434  5 H  s          
    88     -1.243016  2 O  dyy               67      1.183814  2 O  px         
    32     -0.969895  1 C  dxz               68     -0.951715  2 O  py         
   231     -0.908843  5 H  px                33      0.875110  1 C  dyy        
     4      0.793002  1 C  s                241      0.785088  5 H  dxy        

 Vector   57  Occ=0.000000D+00  E= 8.086481D-01
              MO Center= -2.6D-01, -4.0D-01,  8.2D-02, r^2= 6.5D+00
   Bfn.  Coefficient  Atom+Function         Bfn.  Coefficient  Atom+Function  
  ----- ------------  ---------------      ----- ------------  ---------------
   223     14.463202  5 H  s                 60    -11.742156  2 O  s          
     4     -9.478653  1 C  s                222     -5.664248  5 H  s          
    59      4.863683  2 O  s                 50     -4.182516  1 C  fxyz       
    53     -4.017362  1 C  fyyz              14     -3.779290  1 C  pz         
   170     -3.672366  4 O  s                115     -3.039634  3 O  s          

 Vector   58  Occ=0.000000D+00  E= 8.369368D-01
              MO Center=  2.7D-01,  3.2D-01,  4.0D-01, r^2= 8.0D+00
   Bfn.  Coefficient  Atom+Function         Bfn.  Coefficient  Atom+Function  
  ----- ------------  ---------------      ----- ------------  ---------------
    14      6.839505  1 C  pz                60     -5.771480  2 O  s          
   114     -4.796912  3 O  s                 59      4.714414  2 O  s          
   223     -4.665865  5 H  s                 11     -4.628628  1 C  pz         
    55     -4.123937  1 C  fzzz              90      3.976874  2 O  dzz        
   123      3.463890  3 O  py                48     -3.248292  1 C  fxxz       

 Vector   59  Occ=0.000000D+00  E= 8.379977D-01
              MO Center= -2.4D-01, -1.9D-01, -3.0D-03, r^2= 7.2D+00
   Bfn.  Coefficient  Atom+Function         Bfn.  Coefficient  Atom+Function  
  ----- ------------  ---------------      ----- ------------  ---------------
    14      2.149117  1 C  pz                51      1.581200  1 C  fxzz       
   223     -1.534952  5 H  s                 60     -1.513041  2 O  s          
     9      1.477630  1 C  px               143     -1.480417  3 O  dyy        
   114     -1.375087  3 O  s                 59      1.358611  2 O  s          
    49      1.336159  1 C  fxyy              11     -1.256906  1 C  pz         

 Vector   60  Occ=0.000000D+00  E= 8.538525D-01
              MO Center=  5.1D-02,  6.5D-03, -3.5D-01, r^2= 5.2D+00
   Bfn.  Coefficient  Atom+Function         Bfn.  Coefficient  Atom+Function  
  ----- ------------  ---------------      ----- ------------  ---------------
   142      1.541693  3 O  dxz               50     -1.156574  1 C  fxyz       
   196      1.125233  4 O  dxy              198     -1.000743  4 O  dyy        
    31     -0.971795  1 C  dxy              195      0.932562  4 O  dxx        
    53      0.920023  1 C  fyyz              48     -0.863579  1 C  fxxz       
    30     -0.830995  1 C  dxx               32     -0.776568  1 C  dxz        

 Vector   61  Occ=0.000000D+00  E= 8.605643D-01
              MO Center= -4.4D-01, -8.8D-01, -4.7D-01, r^2= 6.9D+00
   Bfn.  Coefficient  Atom+Function         Bfn.  Coefficient  Atom+Function  
  ----- ------------  ---------------      ----- ------------  ---------------
   114      8.367533  3 O  s                170      8.025076  4 O  s          
   223      7.522257  5 H  s                 60     -5.662316  2 O  s          
    54     -5.606140  1 C  fyzz              10     -5.571030  1 C  py         
    59      4.605064  2 O  s                169     -4.515741  4 O  s          
   222     -4.443473  5 H  s                178     -4.339345  4 O  py         

 Vector   62  Occ=0.000000D+00  E= 8.643362D-01
              MO Center=  4.2D-01,  7.5D-01, -3.6D-01, r^2= 6.0D+00
   Bfn.  Coefficient  Atom+Function         Bfn.  Coefficient  Atom+Function  
  ----- ------------  ---------------      ----- ------------  ---------------
   223      8.511629  5 H  s                170      7.324463  4 O  s          
   169      6.090727  4 O  s                 34     -5.916807  1 C  dyz        
    59     -5.725117  2 O  s                 35     -4.554999  1 C  dzz        
    33     -4.210901  1 C  dyy               60     -3.909360  2 O  s          
   114     -3.425178  3 O  s                 14     -3.282459  1 C  pz         

 Vector   63  Occ=0.000000D+00  E= 8.791613D-01
              MO Center=  3.5D-02,  1.8D-02, -2.9D-01, r^2= 5.5D+00
   Bfn.  Coefficient  Atom+Function         Bfn.  Coefficient  Atom+Function  
  ----- ------------  ---------------      ----- ------------  ---------------
    32      2.382153  1 C  dxz              197     -2.013167  4 O  dxz        
   142     -1.767236  3 O  dxz               67     -1.532051  2 O  px         
   144      1.279006  3 O  dyz               34     -1.181571  1 C  dyz        
   199      1.166774  4 O  dyz               47      1.112248  1 C  fxxy       
    68      0.965706  2 O  py                50     -0.948089  1 C  fxyz       

 Vector   64  Occ=0.000000D+00  E= 8.932378D-01
              MO Center=  8.7D-02,  1.7D-01,  1.9D-01, r^2= 7.0D+00
   Bfn.  Coefficient  Atom+Function         Bfn.  Coefficient  Atom+Function  
  ----- ------------  ---------------      ----- ------------  ---------------
   169     10.297395  4 O  s                170     -7.645505  4 O  s          
    33      6.276824  1 C  dyy               53      5.817101  1 C  fyyz       
    35      5.063662  1 C  dzz               50      4.745472  1 C  fxyz       
    10      4.514141  1 C  py               178      4.456371  4 O  py         
    30      4.224461  1 C  dxx                5     -4.099824  1 C  s          

 Vector   65  Occ=0.000000D+00  E= 9.093185D-01
              MO Center= -1.5D-02, -3.9D-02,  2.0D-01, r^2= 7.6D+00
   Bfn.  Coefficient  Atom+Function         Bfn.  Coefficient  Atom+Function  
  ----- ------------  ---------------      ----- ------------  ---------------
   115     14.165766  3 O  s                 60      9.238419  2 O  s          
    33     -7.528110  1 C  dyy                4     -7.192274  1 C  s          
    35     -6.141143  1 C  dzz              222     -6.039019  5 H  s          
    30     -5.068418  1 C  dxx                5     -4.575448  1 C  s          
    31     -4.402080  1 C  dxy              170      4.194722  4 O  s          

 Vector   66  Occ=0.000000D+00  E= 9.170387D-01
              MO Center=  9.3D-03,  8.1D-02,  4.4D-01, r^2= 4.0D+00
   Bfn.  Coefficient  Atom+Function         Bfn.  Coefficient  Atom+Function  
  ----- ------------  ---------------      ----- ------------  ---------------
    67      3.677235  2 O  px                87     -2.649521  2 O  dxz        
    32     -2.209035  1 C  dxz               68     -2.106225  2 O  py         
    51     -1.733949  1 C  fxzz              89      1.418075  2 O  dyz        
    34      1.322762  1 C  dyz               12     -1.196283  1 C  px         
    54      0.948414  1 C  fyzz             177     -0.772702  4 O  px         

 Vector   67  Occ=0.000000D+00  E= 9.333753D-01
              MO Center=  4.1D-02,  1.5D-01,  5.5D-01, r^2= 6.8D+00
   Bfn.  Coefficient  Atom+Function         Bfn.  Coefficient  Atom+Function  
  ----- ------------  ---------------      ----- ------------  ---------------
   170     -8.046237  4 O  s                114      7.772275  3 O  s          
    60     -6.354577  2 O  s                  4      5.852470  1 C  s          
    59     -5.581690  2 O  s                115     -5.482338  3 O  s          
   169     -4.975761  4 O  s                 33      4.812695  1 C  dyy        
   123     -4.458264  3 O  py                 5      4.125105  1 C  s          

 Vector   68  Occ=0.000000D+00  E= 9.489593D-01
              MO Center=  1.5D-01,  4.1D-01,  2.2D-01, r^2= 5.2D+00
   Bfn.  Coefficient  Atom+Function         Bfn.  Coefficient  Atom+Function  
  ----- ------------  ---------------      ----- ------------  ---------------
   115      5.557460  3 O  s                  4     -4.304880  1 C  s          
    60      4.130215  2 O  s                170      3.341858  4 O  s          
   122      2.939066  3 O  px                 5     -2.817245  1 C  s          
    35     -2.534986  1 C  dzz               33     -2.331827  1 C  dyy        
    30     -2.157180  1 C  dxx               32      2.139210  1 C  dxz        

 Vector   69  Occ=0.000000D+00  E= 9.503487D-01
              MO Center=  2.9D-01,  4.5D-01,  5.6D-01, r^2= 7.1D+00
   Bfn.  Coefficient  Atom+Function         Bfn.  Coefficient  Atom+Function  
  ----- ------------  ---------------      ----- ------------  ---------------
   115     13.199192  3 O  s                  4    -10.073684  1 C  s          
    60      9.688688  2 O  s                170      8.516879  4 O  s          
     5     -6.722898  1 C  s                 35     -6.558442  1 C  dzz        
    33     -6.011845  1 C  dyy               30     -4.446828  1 C  dxx        
    69     -4.338815  2 O  pz               222      3.207991  5 H  s          

 Vector   70  Occ=0.000000D+00  E= 9.878822D-01
              MO Center=  2.0D-01,  5.0D-01,  1.3D+00, r^2= 5.5D+00
   Bfn.  Coefficient  Atom+Function         Bfn.  Coefficient  Atom+Function  
  ----- ------------  ---------------      ----- ------------  ---------------
    59     -9.113377  2 O  s                  4      8.692456  1 C  s          
    60     -5.495058  2 O  s                223      5.221968  5 H  s          
   170      4.421255  4 O  s                 14      3.941823  1 C  pz         
    69      3.955751  2 O  pz                54     -3.701440  1 C  fyzz       
    90     -2.948709  2 O  dzz              232     -2.631062  5 H  py         

 Vector   71  Occ=0.000000D+00  E= 1.025958D+00
              MO Center=  1.3D-01,  2.5D-01,  4.7D-01, r^2= 4.9D+00
   Bfn.  Coefficient  Atom+Function         Bfn.  Coefficient  Atom+Function  
  ----- ------------  ---------------      ----- ------------  ---------------
   177      3.531570  4 O  px               122     -2.765074  3 O  px         
    31      2.670872  1 C  dxy               33     -2.208354  1 C  dyy        
    30      2.082516  1 C  dxx               67      1.896222  2 O  px         
   231     -1.762576  5 H  px               178     -1.689631  4 O  py         
   123      1.447247  3 O  py                70      1.220514  2 O  px         

 Vector   72  Occ=0.000000D+00  E= 1.037772D+00
              MO Center=  1.0D-01,  1.8D-01, -2.0D-01, r^2= 6.3D+00
   Bfn.  Coefficient  Atom+Function         Bfn.  Coefficient  Atom+Function  
  ----- ------------  ---------------      ----- ------------  ---------------
     4     14.858017  1 C  s                 60     -9.569303  2 O  s          
    35      8.293671  1 C  dzz              170     -7.479593  4 O  s          
   115     -6.653370  3 O  s                223      6.556606  5 H  s          
   178     -4.750741  4 O  py               123      3.797055  3 O  py         
     5      3.568698  1 C  s                169     -3.014183  4 O  s          

 Vector   73  Occ=0.000000D+00  E= 1.079511D+00
              MO Center= -5.7D-03,  1.1D-01,  8.2D-01, r^2= 5.1D+00
   Bfn.  Coefficient  Atom+Function         Bfn.  Coefficient  Atom+Function  
  ----- ------------  ---------------      ----- ------------  ---------------
   177      3.563395  4 O  px                12     -3.081477  1 C  px         
   178     -2.140770  4 O  py               197      1.847407  4 O  dxz        
   196      1.633041  4 O  dxy               47     -1.410949  1 C  fxxy       
   198     -1.344404  4 O  dyy                9     -1.295040  1 C  px         
   241     -1.167900  5 H  dxy              199     -1.124359  4 O  dyz        

 Vector   74  Occ=0.000000D+00  E= 1.089155D+00
              MO Center= -9.6D-02, -1.1D-01,  6.3D-01, r^2= 5.7D+00
   Bfn.  Coefficient  Atom+Function         Bfn.  Coefficient  Atom+Function  
  ----- ------------  ---------------      ----- ------------  ---------------
     4     19.170602  1 C  s                 60     -9.297431  2 O  s          
    34     -6.615243  1 C  dyz              179     -5.624208  4 O  pz         
    59     -5.153281  2 O  s                 14      4.982870  1 C  pz         
     5      4.801301  1 C  s                115     -4.706813  3 O  s          
   223      4.595945  5 H  s                 69      4.562091  2 O  pz         

 Vector   75  Occ=0.000000D+00  E= 1.105887D+00
              MO Center=  2.5D-01,  4.2D-01, -3.7D-02, r^2= 5.6D+00
   Bfn.  Coefficient  Atom+Function         Bfn.  Coefficient  Atom+Function  
  ----- ------------  ---------------      ----- ------------  ---------------
     4     15.992054  1 C  s                 13     13.341130  1 C  py         
    14    -12.266012  1 C  pz               115    -11.476334  3 O  s          
    12      8.122344  1 C  px                31      6.918005  1 C  dxy        
   223     -6.622174  5 H  s                 33      6.352948  1 C  dyy        
   114     -5.697120  3 O  s                 34     -4.626388  1 C  dyz        

 Vector   76  Occ=0.000000D+00  E= 1.124133D+00
              MO Center= -1.9D-01, -3.4D-01, -2.0D-02, r^2= 5.8D+00
   Bfn.  Coefficient  Atom+Function         Bfn.  Coefficient  Atom+Function  
  ----- ------------  ---------------      ----- ------------  ---------------
     4     16.917207  1 C  s                 13    -13.403801  1 C  py         
   170     -9.096253  4 O  s                 14     -8.011362  1 C  pz         
    12     -6.949818  1 C  px                34      6.171608  1 C  dyz        
    69      6.006175  2 O  pz               169     -6.004788  4 O  s          
    31      5.851604  1 C  dxy               33      5.281850  1 C  dyy        

 Vector   77  Occ=0.000000D+00  E= 1.158094D+00
              MO Center=  7.0D-02,  3.6D-01,  6.0D-01, r^2= 4.8D+00
   Bfn.  Coefficient  Atom+Function         Bfn.  Coefficient  Atom+Function  
  ----- ------------  ---------------      ----- ------------  ---------------
   223      5.244846  5 H  s                  4      5.038132  1 C  s          
    12     -3.885108  1 C  px                60     -3.053238  2 O  s          
   170     -2.327140  4 O  s                 31      2.227132  1 C  dxy        
   122      2.201903  3 O  px                87     -2.044143  2 O  dxz        
   124     -2.048494  3 O  pz                13      2.032403  1 C  py         

 Vector   78  Occ=0.000000D+00  E= 1.158241D+00
              MO Center=  2.4D-01,  3.6D-01,  8.6D-01, r^2= 5.6D+00
   Bfn.  Coefficient  Atom+Function         Bfn.  Coefficient  Atom+Function  
  ----- ------------  ---------------      ----- ------------  ---------------
   223     12.340592  5 H  s                  4     11.184196  1 C  s          
    60     -7.045033  2 O  s                170     -4.992492  4 O  s          
    33      4.658429  1 C  dyy               34      4.592436  1 C  dyz        
    31      4.529005  1 C  dxy              124     -4.376996  3 O  pz         
    53      3.734259  1 C  fyyz              59     -3.719123  2 O  s          

 Vector   79  Occ=0.000000D+00  E= 1.199007D+00
              MO Center=  8.9D-02,  2.0D-01,  3.3D-01, r^2= 4.6D+00
   Bfn.  Coefficient  Atom+Function         Bfn.  Coefficient  Atom+Function  
  ----- ------------  ---------------      ----- ------------  ---------------
    51      4.098373  1 C  fxzz              49      3.752163  1 C  fxyy       
    46      3.623380  1 C  fxxx             122     -3.615197  3 O  px         
    87      3.343826  2 O  dxz              177     -2.368860  4 O  px         
    52     -2.271094  1 C  fyyy              54     -2.263221  1 C  fyzz       
     9      2.104085  1 C  px               123      2.035461  3 O  py         

 Vector   80  Occ=0.000000D+00  E= 1.210096D+00
              MO Center= -8.9D-02, -1.6D-01,  2.9D-02, r^2= 6.0D+00
   Bfn.  Coefficient  Atom+Function         Bfn.  Coefficient  Atom+Function  
  ----- ------------  ---------------      ----- ------------  ---------------
    60     13.814223  2 O  s                223    -13.852023  5 H  s          
    34     10.213851  1 C  dyz               14     -9.592914  1 C  pz         
    13     -8.834650  1 C  py               170     -8.524750  4 O  s          
   179      7.400620  4 O  pz               114     -5.868464  3 O  s          
    32      5.809544  1 C  dxz               47      4.949527  1 C  fxxy       

 Vector   81  Occ=0.000000D+00  E= 1.258408D+00
              MO Center=  2.7D-01,  5.6D-01,  5.9D-01, r^2= 5.4D+00
   Bfn.  Coefficient  Atom+Function         Bfn.  Coefficient  Atom+Function  
  ----- ------------  ---------------      ----- ------------  ---------------
   223     16.015100  5 H  s                  4      7.227244  1 C  s          
    13     -7.117476  1 C  py                14     -7.149634  1 C  pz         
   222     -6.463947  5 H  s                 60     -6.317329  2 O  s          
   170     -5.759571  4 O  s                178     -5.636984  4 O  py         
    68      5.131484  2 O  py               198     -3.915670  4 O  dyy        

 Vector   82  Occ=0.000000D+00  E= 1.278841D+00
              MO Center=  8.9D-02,  2.5D-01,  7.4D-01, r^2= 5.9D+00
   Bfn.  Coefficient  Atom+Function         Bfn.  Coefficient  Atom+Function  
  ----- ------------  ---------------      ----- ------------  ---------------
   223     20.531030  5 H  s                 60    -10.893694  2 O  s          
    34     -9.415236  1 C  dyz                4     -9.212965  1 C  s          
    59     -8.078278  2 O  s                114      7.127489  3 O  s          
   115     -6.728649  3 O  s                123     -5.896695  3 O  py         
   124      5.784090  3 O  pz                14     -5.479988  1 C  pz         

 Vector   83  Occ=0.000000D+00  E= 1.303878D+00
              MO Center= -1.4D-02,  2.8D-02,  4.5D-01, r^2= 4.9D+00
   Bfn.  Coefficient  Atom+Function         Bfn.  Coefficient  Atom+Function  
  ----- ------------  ---------------      ----- ------------  ---------------
    60     16.308146  2 O  s                223    -13.252163  5 H  s          
     4      9.594983  1 C  s                 14     -9.165739  1 C  pz         
    13      6.270041  1 C  py                53      6.293720  1 C  fyyz       
   169     -4.975204  4 O  s                178     -4.919568  4 O  py         
    50      4.828066  1 C  fxyz              54     -4.465317  1 C  fyzz       

 Vector   84  Occ=0.000000D+00  E= 1.349369D+00
              MO Center= -8.5D-02, -1.0D-01,  3.5D-01, r^2= 5.1D+00
   Bfn.  Coefficient  Atom+Function         Bfn.  Coefficient  Atom+Function  
  ----- ------------  ---------------      ----- ------------  ---------------
     4     16.356221  1 C  s                223    -10.890961  5 H  s          
   222     10.154841  5 H  s                 68     -7.511178  2 O  py         
    59     -6.945584  2 O  s                 69      6.656870  2 O  pz         
    86     -5.419126  2 O  dxy               88     -5.381081  2 O  dyy        
    67     -4.869355  2 O  px                50      4.354234  1 C  fxyz       

 Vector   85  Occ=0.000000D+00  E= 1.374655D+00
              MO Center=  1.6D-01,  3.4D-01,  3.0D-01, r^2= 5.7D+00
   Bfn.  Coefficient  Atom+Function         Bfn.  Coefficient  Atom+Function  
  ----- ------------  ---------------      ----- ------------  ---------------
     4     13.051219  1 C  s                123     11.927611  3 O  py         
   114    -11.299242  3 O  s                223      7.481419  5 H  s          
   178      6.825312  4 O  py               122      6.784855  3 O  px         
    68      6.220135  2 O  py               143     -5.914146  3 O  dyy        
   222     -5.796797  5 H  s                169      5.753058  4 O  s          

 Vector   86  Occ=0.000000D+00  E= 1.383729D+00
              MO Center= -1.0D-01,  3.6D-02, -3.6D-02, r^2= 3.9D+00
   Bfn.  Coefficient  Atom+Function         Bfn.  Coefficient  Atom+Function  
  ----- ------------  ---------------      ----- ------------  ---------------
    69      4.083131  2 O  pz                59     -3.721132  2 O  s          
    53      3.575741  1 C  fyyz              26     -2.585059  1 C  dxz        
    55      2.452422  1 C  fzzz              11      2.362080  1 C  pz         
    68     -2.249512  2 O  py               178      2.218749  4 O  py         
   122     -2.148574  3 O  px               114      2.120367  3 O  s          

 Vector   87  Occ=0.000000D+00  E= 1.388435D+00
              MO Center=  1.8D-01,  1.1D-01,  3.8D-01, r^2= 5.0D+00
   Bfn.  Coefficient  Atom+Function         Bfn.  Coefficient  Atom+Function  
  ----- ------------  ---------------      ----- ------------  ---------------
    69     24.577510  2 O  pz                59    -20.706559  2 O  s          
    53     16.353772  1 C  fyyz              48     14.207787  1 C  fxxz       
    11     13.210013  1 C  pz                55     12.762090  1 C  fzzz       
   169     12.287116  4 O  s                 90    -10.545891  2 O  dzz        
   178      9.432602  4 O  py               123     -9.082457  3 O  py         

 Vector   88  Occ=0.000000D+00  E= 1.427556D+00
              MO Center=  7.9D-02,  1.3D-01, -7.4D-02, r^2= 5.0D+00
   Bfn.  Coefficient  Atom+Function         Bfn.  Coefficient  Atom+Function  
  ----- ------------  ---------------      ----- ------------  ---------------
   169     19.637601  4 O  s                178     16.324573  4 O  py         
     4    -12.370290  1 C  s                124    -10.765057  3 O  pz         
   177      8.489127  4 O  px               114     -8.190866  3 O  s          
   179      8.116745  4 O  pz                10      7.496750  1 C  py         
    55      7.357931  1 C  fzzz              69      7.277106  2 O  pz         

 Vector   89  Occ=0.000000D+00  E= 1.449101D+00
              MO Center=  9.1D-02,  1.5D-01,  2.0D-02, r^2= 4.1D+00
   Bfn.  Coefficient  Atom+Function         Bfn.  Coefficient  Atom+Function  
  ----- ------------  ---------------      ----- ------------  ---------------
   122      3.075418  3 O  px                25     -2.449354  1 C  dxy        
   123     -2.188038  3 O  py                24     -2.072851  1 C  dxx        
    31     -1.997699  1 C  dxy               27      1.949806  1 C  dyy        
   177     -1.820887  4 O  px                30     -1.662264  1 C  dxx        
    33      1.622189  1 C  dyy               87      1.594767  2 O  dxz        

 Vector   90  Occ=0.000000D+00  E= 1.470500D+00
              MO Center=  4.0D-02,  1.8D-01,  8.7D-01, r^2= 4.0D+00
   Bfn.  Coefficient  Atom+Function         Bfn.  Coefficient  Atom+Function  
  ----- ------------  ---------------      ----- ------------  ---------------
    47      3.095787  1 C  fxxy              87     -2.509349  2 O  dxz        
    26     -2.488053  1 C  dxz               54      2.254308  1 C  fyzz       
    86     -1.869241  2 O  dxy              178      1.842347  4 O  py         
   228      1.819684  5 H  px                49      1.714594  1 C  fxyy       
    67     -1.713955  2 O  px               197     -1.625733  4 O  dxz        

 Vector   91  Occ=0.000000D+00  E= 1.490772D+00
[...]
  ----- ------------  ---------------      ----- ------------  ---------------
     4     17.092795  1 C  s                 57    -11.378003  2 O  s          
    66      6.853701  2 O  pz               123      5.855640  3 O  py         
    56     -5.612501  2 O  s                175     -5.380831  4 O  py         
   167     -5.297253  4 O  s                110     -5.073557  2 O  fzzz       
   108     -4.596643  2 O  fyyz             103     -4.542986  2 O  fxxz       

 Vector  240  Occ=0.000000D+00  E= 1.653845D+01
              MO Center=  1.5D-01,  2.6D-01,  3.4D-02, r^2= 2.9D+00
   Bfn.  Coefficient  Atom+Function         Bfn.  Coefficient  Atom+Function  
  ----- ------------  ---------------      ----- ------------  ---------------
   112      9.648020  3 O  s                  4     -8.714567  1 C  s          
    57     -7.465196  2 O  s                114      7.302429  3 O  s          
    14      7.174336  1 C  pz               167      7.109169  4 O  s          
   115      5.798932  3 O  s                170      5.660934  4 O  s          
    69      5.418963  2 O  pz               120     -5.188242  3 O  py         

 Vector  241  Occ=0.000000D+00  E= 1.684378D+01
              MO Center= -1.0D-01, -2.6D-01, -5.5D-01, r^2= 2.1D+00
   Bfn.  Coefficient  Atom+Function         Bfn.  Coefficient  Atom+Function  
  ----- ------------  ---------------      ----- ------------  ---------------
   169     19.131859  4 O  s                114    -16.079106  3 O  s          
   167      8.810152  4 O  s                123      8.047020  3 O  py         
   178      7.997685  4 O  py                10      7.649073  1 C  py         
   124     -5.889229  3 O  pz               112     -5.791982  3 O  s          
   179      5.781033  4 O  pz                52      5.588272  1 C  fyyy       

 Vector  242  Occ=0.000000D+00  E= 1.712900D+01
              MO Center= -8.1D-02, -2.0D-02,  1.1D+00, r^2= 1.2D+00
   Bfn.  Coefficient  Atom+Function         Bfn.  Coefficient  Atom+Function  
  ----- ------------  ---------------      ----- ------------  ---------------
    59     12.229339  2 O  s                 57      5.746770  2 O  s          
     4      5.309001  1 C  s                 79     -5.166825  2 O  dxx        
    84     -5.182222  2 O  dzz               82     -5.099279  2 O  dyy        
    66      4.809427  2 O  pz               169      4.411107  4 O  s          
    90     -3.965678  2 O  dzz               88     -3.840630  2 O  dyy        

 Vector  243  Occ=0.000000D+00  E= 1.758083D+01
              MO Center=  4.2D-01,  7.0D-01, -3.5D-01, r^2= 1.5D+00
   Bfn.  Coefficient  Atom+Function         Bfn.  Coefficient  Atom+Function  
  ----- ------------  ---------------      ----- ------------  ---------------
   123     11.595446  3 O  py               120      9.915587  3 O  py         
    13      9.631629  1 C  py               169      9.183386  4 O  s          
     4      8.439253  1 C  s                124     -8.032799  3 O  pz         
   178      8.070329  4 O  py               143     -7.173199  3 O  dyy        
   122      7.030475  3 O  px                10      6.965604  1 C  py         

 Vector  244  Occ=0.000000D+00  E= 1.820700D+01
              MO Center= -2.9D-01, -5.5D-01, -2.3D-01, r^2= 2.4D+00
   Bfn.  Coefficient  Atom+Function         Bfn.  Coefficient  Atom+Function  
  ----- ------------  ---------------      ----- ------------  ---------------
     4     15.594205  1 C  s                114     11.386940  3 O  s          
   178    -11.226052  4 O  py                14    -10.332195  1 C  pz         
   175    -10.051498  4 O  py                50     -9.211022  1 C  fxyz       
   169     -9.146572  4 O  s                 13     -8.543749  1 C  py         
   170     -8.439355  4 O  s                 53     -8.237439  1 C  fyyz       

 Vector  245  Occ=0.000000D+00  E= 2.684265D+01
              MO Center= -3.2D-03, -1.5D-02, -5.4D-02, r^2= 1.6D+00
   Bfn.  Coefficient  Atom+Function         Bfn.  Coefficient  Atom+Function  
  ----- ------------  ---------------      ----- ------------  ---------------
     2     29.460933  1 C  s                169    -27.835903  4 O  s          
   114    -15.182554  3 O  s                  1     14.552729  1 C  s          
    25     12.705013  1 C  dxy               53    -11.980295  1 C  fyyz       
     4     11.585925  1 C  s                178    -10.921084  4 O  py         
    11     -9.773538  1 C  pz                27      8.727005  1 C  dyy        


 center of mass
 --------------
 x =  -0.00814450 y =   0.00473014 z =   0.21319224

 moments of inertia (a.u.)
 ------------------
         273.333818972499         -64.960494588367           5.680324195487
         -64.960494588367         193.149276849201          -8.416283429539
           5.680324195487          -8.416283429539         153.723924088664

     Multipole analysis of the density
     ---------------------------------

     L   x y z        total         alpha         beta         nuclear
     -   - - -        -----         -----         ----         -------
     0   0 0 0     -1.000000    -16.000000    -16.000000     31.000000

     1   1 0 0      0.177864      0.047360      0.047360      0.083145
     1   0 1 0      0.390640     -0.262631     -0.262631      0.915902
     1   0 0 1      0.562713     -3.737768     -3.737768      8.038249

     2   2 0 0    -20.032734    -19.323577    -19.323577     18.614420
     2   1 1 0     -2.607862    -17.806567    -17.806567     33.005273
     2   1 0 1      1.087111      1.477588      1.477588     -1.868065
     2   0 2 0    -22.981073    -41.338912    -41.338912     59.696751
     2   0 1 1      1.477040     -2.575243     -2.575243      6.627526
     2   0 0 2    -22.389403    -53.369255    -53.369255     84.349106

 Line search: 
     step= 1.00 grad=-8.4D-08 hess=-6.1D-07 energy=   -264.307660 mode=accept  
 new step= 1.00                   predicted energy=   -264.307660

          --------
          Step   9
          --------


                         Geometry "geometry" -> "geometry"
                         ---------------------------------

 Output coordinates in angstroms (scale by  1.889725989 to convert to a.u.)

  No.       Tag          Charge          X              Y              Z
 ---- ---------------- ---------- -------------- -------------- --------------
    1 C                    6.0000    -0.00487398    -0.01628148    -0.03694303
    2 O                    8.0000    -0.09975895    -0.01189477     1.42769314
    3 O                    8.0000     0.59085117     0.99198238    -0.50139033
    4 O                    8.0000    -0.52616375    -1.01020159    -0.57155799
    5 H                    1.0000     0.35381452     0.82327546     1.63735822

      Atomic Mass 
      ----------- 

      C                 12.000000
      O                 15.994910
      H                  1.007825


 Effective nuclear repulsion energy (a.u.)     111.7812517471

            Nuclear Dipole moment (a.u.) 
            ----------------------------
        X                 Y               Z
 ---------------- ---------------- ----------------
     0.0831447853     0.9159024107     8.0382490546


                                 NWChem DFT Module
                                 -----------------




 Summary of "ao basis" -> "ao basis" (cartesian)
 ------------------------------------------------------------------------------
       Tag                 Description            Shells   Functions and Types
 ---------------- ------------------------------  ------  ---------------------
 C                        aug-cc-pVTZ               14       55   5s4p3d2f
 O                        aug-cc-pVTZ               14       55   5s4p3d2f
 H                        aug-cc-pVTZ                9       25   4s3p2d



  The DFT is already converged 

         Total DFT energy =   -264.307659718707


            General Information
            -------------------
          SCF calculation type: DFT
          Wavefunction type:  closed shell.
          No. of atoms     :     5
          No. of electrons :    32
           Alpha electrons :    16
            Beta electrons :    16
          Charge           :    -1
          Spin multiplicity:     1
          Use of symmetry is: off; symmetry adaption is: off
          Maximum number of iterations: 200
          AO basis - number of functions:   245
                     number of shells:    65
          Convergence on energy requested:  1.00D-06
          Convergence on density requested:  1.00D-05
          Convergence on gradient requested:  5.00D-04

              XC Information
              --------------
          PerdewBurkeErnzerhof Exchange Functional  1.000          
            Perdew 1991 LDA Correlation Functional  1.000 local    
           PerdewBurkeErnz. Correlation Functional  1.000 non-local

             Grid Information
             ----------------
          Grid used for XC integration:  medium    
          Radial quadrature: Mura-Knowles        
          Angular quadrature: Lebedev. 
          Tag              B.-S. Rad. Rad. Pts. Rad. Cut. Ang. Pts.
          ---              ---------- --------- --------- ---------
          C                   0.70       49          12.0       434
          O                   0.60       49          13.0       434
          H                   0.35       45          12.0       434
          Grid pruning is: on 
          Number of quadrature shells:   241
          Spatial weights used:  Erf1

          Convergence Information
          -----------------------
          Convergence aids based upon iterative change in 
          total energy or number of iterations. 
          Levelshifting, if invoked, occurs when the 
          HOMO/LUMO gap drops below (HL_TOL):  1.00D-02
          DIIS, if invoked, will attempt to extrapolate 
          using up to (NFOCK): 10 stored Fock matrices.

                    Damping(40%)  Levelshifting(0.0)       DIIS
                  --------------- ------------------- ---------------
          dE  on:    start            ASAP                start   
          dE off:  200 iters        200 iters           200 iters 


      Screening Tolerance Information
      -------------------------------
          Density screening/tol_rho:  1.00D-10
          AO Gaussian exp screening on grid/accAOfunc:  14
          CD Gaussian exp screening on grid/accCDfunc:  20
          XC Gaussian exp screening on grid/accXCfunc:  20
          Schwarz screening/accCoul:  1.00D-08



                            NWChem DFT Gradient Module
                            --------------------------



  charge          =  -1.00
  wavefunction    = closed shell



                         DFT ENERGY GRADIENTS

    atom               coordinates                        gradient
                 x          y          z           x          y          z
   1 C      -0.009210  -0.030768  -0.069812    0.000134   0.000236  -0.000022
   2 O      -0.188517  -0.022478   2.697949   -0.000009  -0.000027   0.000020
   3 O       1.116547   1.874575  -0.947490   -0.000058  -0.000103   0.000044
   4 O      -0.994305  -1.909004  -1.080088   -0.000057  -0.000101  -0.000042
   5 H       0.668612   1.555765   3.094158   -0.000010  -0.000005   0.000000

                 ----------------------------------------
                 |  Time  |  1-e(secs)   |  2-e(secs)   |
                 ----------------------------------------
                 |  CPU   |       0.00   |       4.69   |
                 ----------------------------------------
                 |  WALL  |       0.00   |       4.72   |
                 ----------------------------------------

  Step       Energy      Delta E   Gmax     Grms     Xrms     Xmax   Walltime
  ---- ---------------- -------- -------- -------- -------- -------- --------
@    9    -264.30765972 -6.9D-07  0.00024  0.00008  0.00033  0.00073    233.0
                                     ok       ok       ok       ok  


      ----------------------
      Optimization converged
      ----------------------


  Step       Energy      Delta E   Gmax     Grms     Xrms     Xmax   Walltime
  ---- ---------------- -------- -------- -------- -------- -------- --------
@    9    -264.30765972 -6.9D-07  0.00024  0.00008  0.00033  0.00073    233.0
                                     ok       ok       ok       ok  



                         Geometry "geometry" -> "geometry"
                         ---------------------------------

 Output coordinates in angstroms (scale by  1.889725989 to convert to a.u.)

  No.       Tag          Charge          X              Y              Z
 ---- ---------------- ---------- -------------- -------------- --------------
    1 C                    6.0000    -0.00487398    -0.01628148    -0.03694303
    2 O                    8.0000    -0.09975895    -0.01189477     1.42769314
    3 O                    8.0000     0.59085117     0.99198238    -0.50139033
    4 O                    8.0000    -0.52616375    -1.01020159    -0.57155799
    5 H                    1.0000     0.35381452     0.82327546     1.63735822

      Atomic Mass 
      ----------- 

      C                 12.000000
      O                 15.994910
      H                  1.007825


 Effective nuclear repulsion energy (a.u.)     111.7812517471

            Nuclear Dipole moment (a.u.) 
            ----------------------------
        X                 Y               Z
 ---------------- ---------------- ----------------
     0.0831447853     0.9159024107     8.0382490546

 ==============================================================================
                                internuclear distances
 ------------------------------------------------------------------------------
       center one      |      center two      | atomic units |  angstroms
 ------------------------------------------------------------------------------
    2 O                |   1 C                |     2.77358  |     1.46771
    3 O                |   1 C                |     2.38075  |     1.25984
    4 O                |   1 C                |     2.34922  |     1.24315
    5 H                |   2 O                |     1.83916  |     0.97324
 ------------------------------------------------------------------------------
                         number of included internuclear distances:          4
 ==============================================================================



 ==============================================================================
                                 internuclear angles
 ------------------------------------------------------------------------------
        center 1       |       center 2       |       center 3       |  degrees
 ------------------------------------------------------------------------------
    2 O                |   1 C                |   3 O                |   113.33
    2 O                |   1 C                |   4 O                |   113.86
    3 O                |   1 C                |   4 O                |   132.81
    1 C                |   2 O                |   5 H                |   100.80
 ------------------------------------------------------------------------------
                            number of included internuclear angles:          4
 ==============================================================================




 Task  times  cpu:      228.1s     wall:      232.8s


                                NWChem Input Module
                                -------------------


 Summary of allocated global arrays
-----------------------------------
  No active global arrays


MA_summarize_allocated_blocks: starting scan ...
MA_summarize_allocated_blocks: scan completed: 0 heap blocks, 0 stack blocks
MA usage statistics:

	allocation statistics:
					      heap	     stack
					      ----	     -----
	current number of blocks	         0	         0
	maximum number of blocks	        24	        53
	current total bytes		         0	         0
	maximum total bytes		 268875376	  42597768
	maximum total K-bytes		    268876	     42598
	maximum total M-bytes		       269	        43


                                     CITATION
                                     --------
                Please cite the following reference when publishing
                           results obtained with NWChem:

          E. Apra, E. J. Bylaska, W. A. de Jong, N. Govind, K. Kowalski,
       T. P. Straatsma, M. Valiev, H. J. J. van Dam, Y. Alexeev, J. Anchell,
       V. Anisimov, F. W. Aquino, R. Atta-Fynn, J. Autschbach, N. P. Bauman,
     J. C. Becca, D. E. Bernholdt, K. Bhaskaran-Nair, S. Bogatko, P. Borowski,
         J. Boschen, J. Brabec, A. Bruner, E. Cauet, Y. Chen, G. N. Chuev,
      C. J. Cramer, J. Daily, M. J. O. Deegan, T. H. Dunning Jr., M. Dupuis,
   K. G. Dyall, G. I. Fann, S. A. Fischer, A. Fonari, H. Fruchtl, L. Gagliardi,
      J. Garza, N. Gawande, S. Ghosh, K. Glaesemann, A. W. Gotz, J. Hammond,
       V. Helms, E. D. Hermes, K. Hirao, S. Hirata, M. Jacquelin, L. Jensen,
   B. G. Johnson, H. Jonsson, R. A. Kendall, M. Klemm, R. Kobayashi, V. Konkov,
      S. Krishnamoorthy, M. Krishnan, Z. Lin, R. D. Lins, R. J. Littlefield,
      A. J. Logsdail, K. Lopata, W. Ma, A. V. Marenich, J. Martin del Campo,
   D. Mejia-Rodriguez, J. E. Moore, J. M. Mullin, T. Nakajima, D. R. Nascimento,
    J. A. Nichols, P. J. Nichols, J. Nieplocha, A. Otero-de-la-Roza, B. Palmer,
    A. Panyala, T. Pirojsirikul, B. Peng, R. Peverati, J. Pittner, L. Pollack,
   R. M. Richard, P. Sadayappan, G. C. Schatz, W. A. Shelton, D. W. Silverstein,
   D. M. A. Smith, T. A. Soares, D. Song, M. Swart, H. L. Taylor, G. S. Thomas,
            V. Tipparaju, D. G. Truhlar, K. Tsemekhman, T. Van Voorhis,
      A. Vazquez-Mayagoitia, P. Verma, O. Villa, A. Vishnu, K. D. Vogiatzis,
        D. Wang, J. H. Weare, M. J. Williamson, T. L. Windus, K. Wolinski,
        A. T. Wong, Q. Wu, C. Yang, Q. Yu, M. Zacharias, Z. Zhang, Y. Zhao,
                                and R. J. Harrison
                        "NWChem: Past, present, and future
                         J. Chem. Phys. 152, 184102 (2020)
                               doi:10.1063/5.0004997

                                      AUTHORS
                                      -------
  E. Apra, E. J. Bylaska, N. Govind, K. Kowalski, M. Valiev, D. Mejia-Rodriguez,
       A. Kunitsa, N. P. Bauman, A. Panyala, W. A. de Jong, T. P. Straatsma,
   H. J. J. van Dam, D. Wang, T. L. Windus, J. Hammond, J. Autschbach, A. Woods,
    K. Bhaskaran-Nair, J. Brabec, K. Lopata, S. A. Fischer, S. Krishnamoorthy,
     M. Jacquelin, W. Ma, M. Klemm, O. Villa, Y. Chen, V. Anisimov, F. Aquino,
     S. Hirata, M. T. Hackler, E. Hermes, L. Jensen, J. E. Moore, J. C. Becca,
      V. Konjkov, T. Risthaus, M. Malagoli, A. Marenich, A. Otero-de-la-Roza,
        J. Mullin, P. Nichols, R. Peverati, J. Pittner, Y. Zhao, P.-D. Fan,
        A. Fonari, M. J. Williamson, R. J. Harrison, J. R. Rehr, M. Dupuis,
     D. Silverstein, D. M. A. Smith, J. Nieplocha, V. Tipparaju, M. Krishnan,
     B. E. Van Kuiken, A. Vazquez-Mayagoitia, M. Swart, Q. Wu, T. Van Voorhis,
     A. A. Auer, M. Nooijen, L. D. Crosby, E. Brown, G. Cisneros, G. I. Fann,
   H. Fruchtl, J. Garza, K. Hirao, R. A. Kendall, J. A. Nichols, K. Tsemekhman,
    K. Wolinski, J. Anchell, D. E. Bernholdt, P. Borowski, T. Clark, D. Clerc,
   H. Dachsel, M. J. O. Deegan, K. Dyall, D. Elwood, E. Glendening, M. Gutowski,
   A. C. Hess, J. Jaffe, B. G. Johnson, J. Ju, R. Kobayashi, R. Kutteh, Z. Lin,
   R. Littlefield, X. Long, B. Meng, T. Nakajima, S. Niu, L. Pollack, M. Rosing,
   K. Glaesemann, G. Sandrone, M. Stave, H. Taylor, G. Thomas, J. H. van Lenthe,
                               A. T. Wong, Z. Zhang.

 Total times  cpu:      228.2s     wall:      233.0s
