 argument  1 = 0e/mol.nwi
                                         
                                         


             Northwest Computational Chemistry Package (NWChem) 7.2.2
             --------------------------------------------------------


                    Environmental Molecular Sciences Laboratory
                       Pacific Northwest National Laboratory
                                Richland, WA 99352

                              Copyright (c) 1994-2022
                       Pacific Northwest National Laboratory
                            Battelle Memorial Institute

             NWChem is an open-source computational chemistry package
                        distributed under the terms of the
                      Educational Community License (ECL) 2.0
             A copy of the license is included with this distribution
                              in the LICENSE.TXT file

                                  ACKNOWLEDGMENT
                                  --------------

            This software and its documentation were developed at the
            EMSL at Pacific Northwest National Laboratory, a multiprogram
            national laboratory, operated for the U.S. Department of Energy
            by Battelle under Contract Number DE-AC05-76RL01830. Support
            for this work was provided by the Department of Energy Office
            of Biological and Environmental Research, Office of Basic
            Energy Sciences, and the Office of Advanced Scientific Computing.


           Job information
           ---------------

    hostname        = r005.ib.bridges2.psc.edu
    program         = nwchem
    date            = Tue Oct  1 14:39:14 2024

    compiled        = Mon_Mar_18_17:03:37_2024
    source          = /ocean/projects/pscstaff/mmadrid/nwchem-7.2.2
    nwchem branch   = 7.2.2
    nwchem revision = 74936fb9
    ga revision     = 5.8.0
    use scalapack   = F
    input           = 0e/mol.nwi
    prefix          = dft.
    data base       = .//dft.db
    status          = startup
    nproc           =       15
    time left       =     -1s



           Memory information
           ------------------

    heap     =   67108864 doubles =    512.0 Mbytes
    stack    =   67108861 doubles =    512.0 Mbytes
    global   =  134217728 doubles =   1024.0 Mbytes (distinct from heap & stack)
    total    =  268435453 doubles =   2048.0 Mbytes
    verify   = yes
    hardfail = no 


           Directory information
           ---------------------

  0 permanent = ./
  0 scratch   = /jet/home/hmt47/nwchem_scratch/




                                NWChem Input Module
                                -------------------


  library name resolved from: environment
  library file name is: </opt/packages/nwchem/nwchem7.2.2/share/nwchem/libraries/>
  


 Summary of "ao basis" -> "" (cartesian)
 ------------------------------------------------------------------------------
       Tag                 Description            Shells   Functions and Types
 ---------------- ------------------------------  ------  ---------------------
 *                        aug-cc-pVTZ                 on all atoms 


  pbe96 is a nonlocal functional; adding pw91lda local functional. 

 Scaling coordinates for geometry "geometry" by  1.889725989
 (inverse scale =  0.529177249)



                             Geometry "geometry" -> ""
                             -------------------------

 Output coordinates in angstroms (scale by  1.889725989 to convert to a.u.)

  No.       Tag          Charge          X              Y              Z
 ---- ---------------- ---------- -------------- -------------- --------------
    1 C                    6.0000     0.00130722     0.00235869    -0.04882882
    2 C                    6.0000    -0.04852352     0.02203404     1.51773523
    3 O                    8.0000     0.58172128     0.98117128    -0.59954603
    4 O                    8.0000    -0.54079798    -1.00616352    -0.58570192
    5 H                    1.0000     0.31095568     0.97819423     1.92599588
    6 H                    1.0000    -1.07596282    -0.17134952     1.86516931
    7 H                    1.0000     0.58137513    -0.79376319     1.90932234

      Atomic Mass 
      ----------- 

      C                 12.000000
      O                 15.994910
      H                  1.007825


 Effective nuclear repulsion energy (a.u.)     110.9803416685

            Nuclear Dipole moment (a.u.) 
            ----------------------------
        X                 Y               Z
 ---------------- ---------------- ----------------
    -0.2636988084    -0.0765339403     9.5089923074


            XYZ format geometry
            -------------------
     7
 geometry
 C                     0.00130722     0.00235869    -0.04882882
 C                    -0.04852352     0.02203404     1.51773523
 O                     0.58172128     0.98117128    -0.59954603
 O                    -0.54079798    -1.00616352    -0.58570192
 H                     0.31095568     0.97819423     1.92599588
 H                    -1.07596282    -0.17134952     1.86516931
 H                     0.58137513    -0.79376319     1.90932234

 ==============================================================================
                                internuclear distances
 ------------------------------------------------------------------------------
       center one      |      center two      | atomic units |  angstroms
 ------------------------------------------------------------------------------
    2 C                |   1 C                |     2.96211  |     1.56748
    3 O                |   1 C                |     2.38902  |     1.26422
    4 O                |   1 C                |     2.38976  |     1.26461
    5 H                |   2 C                |     2.07882  |     1.10007
    6 H                |   2 C                |     2.08191  |     1.10170
    7 H                |   2 C                |     2.08354  |     1.10256
 ------------------------------------------------------------------------------
                         number of included internuclear distances:          6
 ==============================================================================



 ==============================================================================
                                 internuclear angles
 ------------------------------------------------------------------------------
        center 1       |       center 2       |       center 3       |  degrees
 ------------------------------------------------------------------------------
    2 C                |   1 C                |   3 O                |   116.12
    2 C                |   1 C                |   4 O                |   114.88
    3 O                |   1 C                |   4 O                |   129.00
    1 C                |   2 C                |   5 H                |   111.80
    1 C                |   2 C                |   6 H                |   110.04
    1 C                |   2 C                |   7 H                |   109.12
    5 H                |   2 C                |   6 H                |   109.89
    5 H                |   2 C                |   7 H                |   108.94
    6 H                |   2 C                |   7 H                |   106.91
 ------------------------------------------------------------------------------
                            number of included internuclear angles:          9
 ==============================================================================




                                 NWChem DFT Module
                                 -----------------


                      Basis "ao basis" -> "ao basis" (cartesian)
                      -----
  C (Carbon)
  ----------
            Exponent  Coefficients 
       -------------- ---------------------------------------------------------
  1 S  8.23600000E+03  0.000531
  1 S  1.23500000E+03  0.004108
  1 S  2.80800000E+02  0.021087
  1 S  7.92700000E+01  0.081853
  1 S  2.55900000E+01  0.234817
  1 S  8.99700000E+00  0.434401
  1 S  3.31900000E+00  0.346129
  1 S  3.64300000E-01 -0.008983

  2 S  8.23600000E+03 -0.000113
  2 S  1.23500000E+03 -0.000878
  2 S  2.80800000E+02 -0.004540
  2 S  7.92700000E+01 -0.018133
  2 S  2.55900000E+01 -0.055760
  2 S  8.99700000E+00 -0.126895
  2 S  3.31900000E+00 -0.170352
  2 S  3.64300000E-01  0.598684

  3 S  9.05900000E-01  1.000000

  4 S  1.28500000E-01  1.000000

  5 S  4.40200000E-02  1.000000

  6 P  1.87100000E+01  0.014031
  6 P  4.13300000E+00  0.086866
  6 P  1.20000000E+00  0.290216

  7 P  3.82700000E-01  1.000000

  8 P  1.20900000E-01  1.000000

  9 P  3.56900000E-02  1.000000

 10 D  1.09700000E+00  1.000000

 11 D  3.18000000E-01  1.000000

 12 D  1.00000000E-01  1.000000

 13 F  7.61000000E-01  1.000000

 14 F  2.68000000E-01  1.000000

  O (Oxygen)
  ----------
            Exponent  Coefficients 
       -------------- ---------------------------------------------------------
  1 S  1.53300000E+04  0.000508
  1 S  2.29900000E+03  0.003929
  1 S  5.22400000E+02  0.020243
  1 S  1.47300000E+02  0.079181
  1 S  4.75500000E+01  0.230687
  1 S  1.67600000E+01  0.433118
  1 S  6.20700000E+00  0.350260
  1 S  6.88200000E-01 -0.008154

  2 S  1.53300000E+04 -0.000115
  2 S  2.29900000E+03 -0.000895
  2 S  5.22400000E+02 -0.004636
  2 S  1.47300000E+02 -0.018724
  2 S  4.75500000E+01 -0.058463
  2 S  1.67600000E+01 -0.136463
  2 S  6.20700000E+00 -0.175740
  2 S  6.88200000E-01  0.603418

  3 S  1.75200000E+00  1.000000

  4 S  2.38400000E-01  1.000000

  5 S  7.37600000E-02  1.000000

  6 P  3.44600000E+01  0.015928
  6 P  7.74900000E+00  0.099740
  6 P  2.28000000E+00  0.310492

  7 P  7.15600000E-01  1.000000

  8 P  2.14000000E-01  1.000000

  9 P  5.97400000E-02  1.000000

 10 D  2.31400000E+00  1.000000

 11 D  6.45000000E-01  1.000000

 12 D  2.14000000E-01  1.000000

 13 F  1.42800000E+00  1.000000

 14 F  5.00000000E-01  1.000000

  H (Hydrogen)
  ------------
            Exponent  Coefficients 
       -------------- ---------------------------------------------------------
  1 S  3.38700000E+01  0.006068
  1 S  5.09500000E+00  0.045308
  1 S  1.15900000E+00  0.202822

  2 S  3.25800000E-01  1.000000

  3 S  1.02700000E-01  1.000000

  4 S  2.52600000E-02  1.000000

  5 P  1.40700000E+00  1.000000

  6 P  3.88000000E-01  1.000000

  7 P  1.02000000E-01  1.000000

  8 D  1.05700000E+00  1.000000

  9 D  2.47000000E-01  1.000000



 Summary of "ao basis" -> "ao basis" (cartesian)
 ------------------------------------------------------------------------------
       Tag                 Description            Shells   Functions and Types
 ---------------- ------------------------------  ------  ---------------------
 C                        aug-cc-pVTZ               14       55   5s4p3d2f
 O                        aug-cc-pVTZ               14       55   5s4p3d2f
 H                        aug-cc-pVTZ                9       25   4s3p2d




 Summary of "ao basis" -> "ao basis" (cartesian)
 ------------------------------------------------------------------------------
       Tag                 Description            Shells   Functions and Types
 ---------------- ------------------------------  ------  ---------------------
 C                        aug-cc-pVTZ               14       55   5s4p3d2f
 O                        aug-cc-pVTZ               14       55   5s4p3d2f
 H                        aug-cc-pVTZ                9       25   4s3p2d


  Caching 1-el integrals 

            General Information
            -------------------
          SCF calculation type: DFT
          Wavefunction type:  spin polarized.
          No. of atoms     :     7
          No. of electrons :    31
           Alpha electrons :    16
            Beta electrons :    15
          Charge           :     0
          Spin multiplicity:     2
          Use of symmetry is: off; symmetry adaption is: off
          Maximum number of iterations: 200
          AO basis - number of functions:   295
                     number of shells:    83
          Convergence on energy requested:  1.00D-06
          Convergence on density requested:  1.00D-05
          Convergence on gradient requested:  5.00D-04

              XC Information
              --------------
          PerdewBurkeErnzerhof Exchange Functional  1.000          
            Perdew 1991 LDA Correlation Functional  1.000 local    
           PerdewBurkeErnz. Correlation Functional  1.000 non-local

             Grid Information
             ----------------
          Grid used for XC integration:  medium    
          Radial quadrature: Mura-Knowles        
          Angular quadrature: Lebedev. 
          Tag              B.-S. Rad. Rad. Pts. Rad. Cut. Ang. Pts.
          ---              ---------- --------- --------- ---------
          C                   0.70       49          13.0       434
          O                   0.60       49          14.0       434
          H                   0.35       45          13.0       434
          Grid pruning is: on 
          Number of quadrature shells:   331
          Spatial weights used:  Erf1

          Convergence Information
          -----------------------
          Convergence aids based upon iterative change in 
          total energy or number of iterations. 
          Levelshifting, if invoked, occurs when the 
          HOMO/LUMO gap drops below (HL_TOL):  1.00D-02
          DIIS, if invoked, will attempt to extrapolate 
          using up to (NFOCK): 10 stored Fock matrices.

                    Damping(40%)  Levelshifting(0.0)       DIIS
                  --------------- ------------------- ---------------
          dE  on:    start            0.00D+00            start   
          dE off:  200 iters          0.00D+00          200 iters 


      Screening Tolerance Information
      -------------------------------
          Density screening/tol_rho:  1.00D-10
          AO Gaussian exp screening on grid/accAOfunc:  14
          CD Gaussian exp screening on grid/accCDfunc:  20
          XC Gaussian exp screening on grid/accXCfunc:  20
          Schwarz screening/accCoul:  1.00D-08


 Forcing the number of linearly dependent vectors to be  0

      Superposition of Atomic Density Guess
      -------------------------------------

 Sum of atomic energies:        -226.40331127
   Time after variat. SCF:      0.3
   Time prior to 1st pass:      0.3

 Grid_pts file          = /jet/home/hmt47/nwchem_scratch//dft.gridpts.00
 Record size in doubles =  12289        No. of grid_pts per rec  =   3070
 Max. records in memory =      5        Max. recs in file   =  67550051


           Memory utilization after 1st SCF pass: 
           Heap Space remaining (MW):       33.49            33486800
          Stack Space remaining (MW):       67.11            67106300

   convergence    iter        energy       DeltaE   RMS-Dens  Diis-err    time
 ---------------- ----- ----------------- --------- --------- ---------  ------
 d=40,ls=0.0,diis     1   -228.6979617254 -3.40D+02  4.10D-03  9.65D+00     1.1
                                                     4.01D-03  8.49D+00
 d=40,ls=0.0,diis     2   -228.3966740424  3.01D-01  2.88D-03  1.57D+00     4.2
                                                     3.17D-03  1.37D+00
 d=40,ls=0.0,diis     3   -227.8333047823  5.63D-01  1.62D-03  1.10D+00     7.4
                                                     2.16D-03  8.77D-01
 d=40,ls=0.0,diis     4   -228.1756634139 -3.42D-01  6.83D-04  1.47D-01    10.6
                                                     1.76D-03  1.27D-01
 d=40,ls=0.0,diis     5   -228.1752897925  3.74D-04  3.22D-04  1.43D-01    13.8
                                                     7.86D-04  1.05D-01
  Resetting Diis
 d=40,ls=0.0,diis     6   -228.1617602187  1.35D-02  1.32D-04  1.88D-01    17.0
                                                     3.10D-04  1.42D-01
 d=40,ls=0.0,diis     7   -228.1551633186  6.60D-03  2.28D-03  2.11D-01    20.2
                                                     2.81D-03  1.64D-01
 d=40,ls=0.0,diis     8   -227.7859991413  3.69D-01  1.03D-03  9.69D-01    23.4
                                                     1.36D-03  7.71D-01
 d=40,ls=0.0,diis     9   -228.0113963436 -2.25D-01  5.29D-04  4.73D-01    26.5
                                                     6.39D-04  3.91D-01
 d=40,ls=0.0,diis    10   -228.1051266929 -9.37D-02  3.61D-04  2.89D-01    29.7
                                                     1.50D-03  2.36D-01
 d=40,ls=0.0,diis    11   -228.2153108468 -1.10D-01  2.24D-04  5.39D-02    32.9
                                                     1.91D-03  4.59D-02
 d=40,ls=0.0,diis    12   -228.2351121325 -1.98D-02  5.72D-05  1.44D-02    36.1
                                                     1.67D-03  1.02D-02
 d=40,ls=0.0,diis    13   -228.2316321993  3.48D-03  6.09D-05  3.07D-02    39.3
                                                     1.07D-03  2.24D-02
 d=40,ls=0.0,diis    14   -228.2400246822 -8.39D-03  6.24D-05  1.40D-02    42.5
                                                     1.51D-03  1.13D-02
 d=40,ls=0.0,diis    15   -228.2347261346  5.30D-03  1.98D-05  2.54D-02    45.7
                                                     6.29D-04  1.94D-02
 d=40,ls=0.0,diis    16   -228.2137478266  2.10D-02  9.52D-06  7.17D-02    48.9
                                                     2.44D-04  5.62D-02
 d=40,ls=0.0,diis    17   -228.2023850655  1.14D-02  4.90D-06  9.69D-02    52.1
                                                     2.50D-04  7.73D-02
 d=40,ls=0.0,diis    18   -228.2036851352 -1.30D-03  9.33D-06  9.40D-02    55.3
                                                     1.28D-03  7.72D-02
 d=40,ls=0.0,diis    19   -228.2401525005 -3.65D-02  6.97D-06  1.50D-02    58.5
                                                     2.43D-04  1.27D-02
 d=40,ls=0.0,diis    20   -228.2411721082 -1.02D-03  4.06D-06  1.29D-02    61.7
                                                     6.14D-04  1.13D-02
 d=40,ls=0.0,diis    21   -228.2278926671  1.33D-02  1.04D-05  4.14D-02    64.9
                                                     1.62D-03  3.63D-02
 d=40,ls=0.0,diis    22   -228.2435770347 -1.57D-02  1.34D-05  7.24D-03    68.1
                                                     6.67D-04  5.77D-03
 d=40,ls=0.0,diis    23   -228.2462270385 -2.65D-03  2.68D-05  1.86D-03    71.3
                                                     1.81D-04  1.18D-03
 d=40,ls=0.0,diis    24   -228.2457896701  4.37D-04  2.18D-05  3.15D-03    74.4
                                                     6.57D-04  2.04D-03
 d=40,ls=0.0,diis    25   -228.2420104083  3.78D-03  2.66D-05  1.11D-02    77.6
                                                     2.17D-04  9.43D-03
 d=40,ls=0.0,diis    26   -228.2441807188 -2.17D-03  1.07D-05  6.53D-03    80.8
                                                     3.30D-04  5.30D-03
 d=40,ls=0.0,diis    27   -228.2396455375  4.54D-03  1.97D-05  1.61D-02    84.0
                                                     1.13D-03  1.45D-02
 d=40,ls=0.0,diis    28   -228.2437116125 -4.07D-03  2.96D-05  7.22D-03    87.2
                                                     1.29D-03  6.08D-03
 d=40,ls=0.0,diis    29   -228.2375944262  6.12D-03  6.88D-05  2.02D-02    90.4
                                                     7.36D-04  1.68D-02
 d=40,ls=0.0,diis    30   -228.2176278809  2.00D-02  3.63D-05  6.37D-02    93.6
                                                     2.64D-04  5.18D-02
 d=40,ls=0.0,diis    31   -228.2067606740  1.09D-02  1.55D-05  8.79D-02    96.8
                                                     1.70D-04  7.16D-02
 d=40,ls=0.0,diis    32   -228.2004746624  6.29D-03  1.53D-05  1.02D-01   100.0
                                                     1.34D-04  8.28D-02
 d=40,ls=0.0,diis    33   -228.2022413825 -1.77D-03  2.27D-05  9.78D-02   103.2
                                                     3.41D-04  8.07D-02
 d=40,ls=0.0,diis    34   -228.2108568779 -8.62D-03  1.70D-05  7.87D-02   106.4
                                                     1.60D-04  6.71D-02
 d=40,ls=0.0,diis    35   -228.2061556514  4.70D-03  4.95D-06  8.91D-02   109.6
                                                     8.45D-05  7.49D-02
 d=40,ls=0.0,diis    36   -228.2036999482  2.46D-03  1.08D-05  9.46D-02   112.8
                                                     5.41D-04  7.90D-02
 d=40,ls=0.0,diis    37   -228.2195711025 -1.59D-02  5.94D-05  5.97D-02   116.0
                                                     1.30D-03  5.21D-02
 d=40,ls=0.0,diis    38   -228.2466429134 -2.71D-02  2.60D-05  5.83D-04   119.2
                                                     6.65D-04  4.88D-04
 d=40,ls=0.0,diis    39   -228.2383624252  8.28D-03  1.44D-05  1.86D-02   122.3
                                                     2.76D-04  1.67D-02
 d=40,ls=0.0,diis    40   -228.2314590700  6.90D-03  1.08D-05  3.36D-02   125.5
                                                     6.30D-05  3.03D-02
 d=40,ls=0.0,diis    41   -228.2298716946  1.59D-03  4.56D-06  3.70D-02   128.7
                                                     1.61D-04  3.38D-02
 d=40,ls=0.0,diis    42   -228.2253170808  4.55D-03  4.31D-06  4.69D-02   131.9
                                                     1.86D-04  4.24D-02
 d=40,ls=0.0,diis    43   -228.2200194278  5.30D-03  5.15D-06  5.85D-02   135.1
                                                     1.20D-04  5.19D-02
 d=40,ls=0.0,diis    44   -228.2231924072 -3.17D-03  1.92D-05  5.15D-02   138.3
                                                     3.12D-04  4.64D-02
 d=40,ls=0.0,diis    45   -228.2317525318 -8.56D-03  5.25D-06  3.29D-02   141.5
                                                     3.02D-04  3.05D-02
 d=40,ls=0.0,diis    46   -228.2386219352 -6.87D-03  5.26D-06  1.80D-02   144.7
                                                     2.30D-04  1.71D-02
 d=40,ls=0.0,diis    47   -228.2426280175 -4.01D-03  1.73D-06  9.32D-03   147.9
                                                     6.05D-05  9.00D-03
 d=40,ls=0.0,diis    48   -228.2434373335 -8.09D-04  4.17D-05  7.58D-03   151.1
                                                     6.78D-04  7.36D-03
 d=40,ls=0.0,diis    49   -228.2464559502 -3.02D-03  7.70D-06  1.04D-03   154.3
                                                     1.36D-04  9.97D-04
 d=40,ls=0.0,diis    50   -228.2455602148  8.96D-04  3.07D-06  3.00D-03   157.5
                                                     3.19D-05  2.92D-03
 d=40,ls=0.0,diis    51   -228.2453248453  2.35D-04  8.16D-07  3.51D-03   160.7
                                                     1.70D-05  3.44D-03
 d=40,ls=0.0,diis    52   -228.2454525724 -1.28D-04  4.95D-06  3.24D-03   163.9
                                                     3.75D-05  3.18D-03
 d=40,ls=0.0,diis    53   -228.2457740683 -3.21D-04  4.57D-06  2.55D-03   167.1
                                                     8.28D-05  2.51D-03
 d=40,ls=0.0,diis    54   -228.2463533887 -5.79D-04  1.75D-06  1.29D-03   170.3
                                                     1.02D-04  1.28D-03
 d=40,ls=0.0,diis    55   -228.2468008792 -4.47D-04  8.29D-07  3.27D-04   173.5
                                                     6.47D-05  3.23D-04
 d=40,ls=0.0,diis    56   -228.2469312834 -1.30D-04  6.96D-07  4.58D-05   176.6
                                                     2.21D-05  4.52D-05
 d=40,ls=0.0,diis    57   -228.2469487493 -1.75D-05  2.35D-07  8.40D-06   179.8
                                                     5.71D-06  8.29D-06
 d=40,ls=0.0,diis    58   -228.2469510491 -2.30D-06  5.75D-07  3.61D-06   183.0
                                                     4.71D-06  3.56D-06
 d=40,ls=0.0,diis    59   -228.2469522232 -1.17D-06  2.72D-07  1.14D-06   186.2
                                                     3.42D-06  1.12D-06
 d=40,ls=0.0,diis    60   -228.2469526632 -4.40D-07  9.06D-08  2.15D-07   189.4
                                                     1.45D-06  2.12D-07


         Total DFT energy =     -228.246952663230
      One electron energy =     -530.847310930913
           Coulomb energy =      220.371939806667
    Exchange-Corr. energy =      -28.751923207435
 Nuclear repulsion energy =      110.980341668451

 Numeric. integr. density =       31.000000574905

     Total iterative time =    189.2s



                    DFT Final Alpha Molecular Orbital Analysis
                    ------------------------------------------

 Vector    1  Occ=1.000000D+00  E=-1.880276D+01
              MO Center=  5.8D-01,  9.8D-01, -6.0D-01, r^2= 1.5D-02
   Bfn.  Coefficient  Atom+Function         Bfn.  Coefficient  Atom+Function  
  ----- ------------  ---------------      ----- ------------  ---------------
   111      0.981433  3 O  s                 59      0.145003  2 C  s          
   223     -0.102535  5 H  s                248     -0.069941  6 H  s          
   113      0.067257  3 O  s                273     -0.062086  7 H  s          
     4     -0.049007  1 C  s                 88      0.040886  2 C  dyy        
    14      0.035757  1 C  pz                69      0.034685  2 C  pz         

 Vector    2  Occ=1.000000D+00  E=-1.880017D+01
              MO Center= -5.4D-01, -1.0D+00, -5.9D-01, r^2= 1.5D-02
   Bfn.  Coefficient  Atom+Function         Bfn.  Coefficient  Atom+Function  
  ----- ------------  ---------------      ----- ------------  ---------------
   166      0.982392  4 O  s                 59     -0.094754  2 C  s          
   168      0.068030  4 O  s                 14      0.048453  1 C  pz         
   114      0.046754  3 O  s                169     -0.046044  4 O  s          
    54     -0.041825  1 C  fyzz              50      0.039076  1 C  fxyz       
    53      0.034805  1 C  fyyz             222      0.030540  5 H  s          

 Vector    3  Occ=1.000000D+00  E=-1.004102D+01
              MO Center=  1.3D-03,  2.4D-03, -4.9D-02, r^2= 2.8D-02
   Bfn.  Coefficient  Atom+Function         Bfn.  Coefficient  Atom+Function  
  ----- ------------  ---------------      ----- ------------  ---------------
     1      1.011821  1 C  s                  2      0.083631  1 C  s          
     3      0.066878  1 C  s                114     -0.062980  3 O  s          
   169     -0.050132  4 O  s                  4     -0.049103  1 C  s          
    59      0.045899  2 C  s                 69     -0.034474  2 C  pz         
    27      0.032937  1 C  dyy               25      0.032668  1 C  dxy        

 Vector    4  Occ=1.000000D+00  E=-9.951338D+00
              MO Center= -4.9D-02,  2.2D-02,  1.5D+00, r^2= 2.8D-02
   Bfn.  Coefficient  Atom+Function         Bfn.  Coefficient  Atom+Function  
  ----- ------------  ---------------      ----- ------------  ---------------
    56      1.014105  2 C  s                 57      0.088896  2 C  s          
    58      0.066946  2 C  s                223     -0.030155  5 H  s          
   222     -0.027277  5 H  s          

 Vector    5  Occ=1.000000D+00  E=-1.021756D+00
              MO Center=  2.3D-02,  6.6D-03, -4.1D-01, r^2= 1.1D+00
   Bfn.  Coefficient  Atom+Function         Bfn.  Coefficient  Atom+Function  
  ----- ------------  ---------------      ----- ------------  ---------------
   112      0.295831  3 O  s                167      0.288617  4 O  s          
     2      0.268266  1 C  s                169      0.153689  4 O  s          
   114      0.148436  3 O  s                113      0.083688  3 O  s          
   170      0.082173  4 O  s                168      0.081640  4 O  s          
   115      0.079335  3 O  s                  3      0.077903  1 C  s          

 Vector    6  Occ=1.000000D+00  E=-9.461399D-01
              MO Center=  7.4D-03, -2.1D-02, -4.3D-01, r^2= 1.3D+00
   Bfn.  Coefficient  Atom+Function         Bfn.  Coefficient  Atom+Function  
  ----- ------------  ---------------      ----- ------------  ---------------
   167     -0.342705  4 O  s                112      0.338223  3 O  s          
   114      0.289552  3 O  s                169     -0.289870  4 O  s          
     7      0.139423  1 C  py               168     -0.094664  4 O  s          
   113      0.093374  3 O  s                  6      0.078741  1 C  px         
   172     -0.048974  4 O  py               175     -0.048718  4 O  py         

 Vector    7  Occ=1.000000D+00  E=-7.068420D-01
              MO Center= -4.0D-02,  1.7D-03,  1.2D+00, r^2= 1.3D+00
   Bfn.  Coefficient  Atom+Function         Bfn.  Coefficient  Atom+Function  
  ----- ------------  ---------------      ----- ------------  ---------------
    57      0.393098  2 C  s                 59      0.330558  2 C  s          
     8      0.113642  1 C  pz                 2      0.104565  1 C  s          
    58      0.096469  2 C  s                167     -0.094483  4 O  s          
   272      0.092317  7 H  s                247      0.091301  6 H  s          
   112     -0.090297  3 O  s                 11      0.088473  1 C  pz         

 Vector    8  Occ=1.000000D+00  E=-5.137736D-01
              MO Center= -4.2D-03,  1.3D-02,  3.6D-01, r^2= 2.8D+00
   Bfn.  Coefficient  Atom+Function         Bfn.  Coefficient  Atom+Function  
  ----- ------------  ---------------      ----- ------------  ---------------
     2      0.288566  1 C  s                112     -0.174835  3 O  s          
   167     -0.171054  4 O  s                169     -0.170390  4 O  s          
     4      0.168536  1 C  s                 63     -0.152366  2 C  pz         
   114     -0.135762  3 O  s                 66     -0.130661  2 C  pz         
    57     -0.117331  2 C  s                 59     -0.105956  2 C  s          

 Vector    9  Occ=1.000000D+00  E=-4.474582D-01
              MO Center= -4.8D-02, -1.1D-01, -1.1D-02, r^2= 2.3D+00
   Bfn.  Coefficient  Atom+Function         Bfn.  Coefficient  Atom+Function  
  ----- ------------  ---------------      ----- ------------  ---------------
     8      0.205490  1 C  pz                11      0.165948  1 C  pz         
   172     -0.162378  4 O  py               175     -0.152378  4 O  py         
   117      0.147381  3 O  py               120      0.140755  3 O  py         
    63     -0.134490  2 C  pz               167      0.131475  4 O  s          
   169      0.129490  4 O  s                 66     -0.116079  2 C  pz         

 Vector   10  Occ=1.000000D+00  E=-4.469427D-01
              MO Center=  7.4D-02,  1.5D-01, -1.2D-01, r^2= 2.7D+00
   Bfn.  Coefficient  Atom+Function         Bfn.  Coefficient  Atom+Function  
  ----- ------------  ---------------      ----- ------------  ---------------
    59      0.190655  2 C  s                112     -0.156294  3 O  s          
     7      0.153196  1 C  py               173     -0.149701  4 O  pz         
   176     -0.150091  4 O  pz               118      0.139072  3 O  pz         
   121      0.138796  3 O  pz               117     -0.131738  3 O  py         
   167      0.127204  4 O  s                120     -0.125898  3 O  py         

 Vector   11  Occ=1.000000D+00  E=-4.423714D-01
              MO Center= -3.5D-02, -8.8D-02,  5.6D-01, r^2= 2.2D+00
   Bfn.  Coefficient  Atom+Function         Bfn.  Coefficient  Atom+Function  
  ----- ------------  ---------------      ----- ------------  ---------------
     6      0.161943  1 C  px                61      0.160047  2 C  px         
     9      0.136219  1 C  px               272      0.136363  7 H  s          
    64      0.130426  2 C  px               116      0.122180  3 O  px         
   119      0.120286  3 O  px               247     -0.116635  6 H  s          
   171      0.110648  4 O  px               174      0.109361  4 O  px         

 Vector   12  Occ=1.000000D+00  E=-3.946523D-01
              MO Center= -3.2D-02,  1.7D-01,  1.1D+00, r^2= 2.5D+00
   Bfn.  Coefficient  Atom+Function         Bfn.  Coefficient  Atom+Function  
  ----- ------------  ---------------      ----- ------------  ---------------
    62      0.203216  2 C  py               222      0.197779  5 H  s          
    65      0.185425  2 C  py               221      0.148770  5 H  s          
   247     -0.117499  6 H  s                 61      0.114544  2 C  px         
   172      0.111282  4 O  py               175      0.108872  4 O  py         
    64      0.104680  2 C  px               117      0.102130  3 O  py         

 Vector   13  Occ=1.000000D+00  E=-3.734344D-01
              MO Center= -1.6D-02, -9.4D-02,  7.0D-01, r^2= 2.6D+00
   Bfn.  Coefficient  Atom+Function         Bfn.  Coefficient  Atom+Function  
  ----- ------------  ---------------      ----- ------------  ---------------
    61      0.175573  2 C  px               272      0.161514  7 H  s          
    64      0.159296  2 C  px               116     -0.143823  3 O  px         
   119     -0.142907  3 O  px               247     -0.136335  6 H  s          
   171     -0.132727  4 O  px               174     -0.131804  4 O  px         
   271      0.124328  7 H  s                  6     -0.117260  1 C  px         

 Vector   14  Occ=1.000000D+00  E=-2.931775D-01
              MO Center=  5.3D-03, -4.1D-02, -5.6D-01, r^2= 1.9D+00
   Bfn.  Coefficient  Atom+Function         Bfn.  Coefficient  Atom+Function  
  ----- ------------  ---------------      ----- ------------  ---------------
   174     -0.247486  4 O  px               119      0.244621  3 O  px         
   171     -0.244296  4 O  px               116      0.241478  3 O  px         
   177     -0.152691  4 O  px               122      0.151497  3 O  px         
   175      0.145168  4 O  py               172      0.143442  4 O  py         
   120     -0.131761  3 O  py               117     -0.129792  3 O  py         

 Vector   15  Occ=1.000000D+00  E=-2.928910D-01
              MO Center=  3.2D-02,  3.9D-02, -1.8D-01, r^2= 2.4D+00
   Bfn.  Coefficient  Atom+Function         Bfn.  Coefficient  Atom+Function  
  ----- ------------  ---------------      ----- ------------  ---------------
   121      0.262891  3 O  pz               118      0.255492  3 O  pz         
   173      0.240824  4 O  pz               176      0.241987  4 O  pz         
    63      0.168962  2 C  pz               179      0.168058  4 O  pz         
    66      0.163812  2 C  pz               124      0.150152  3 O  pz         
    11     -0.088367  1 C  pz                57     -0.082433  2 C  s          

 Vector   16  Occ=1.000000D+00  E=-2.841365D-01
              MO Center= -1.5D-02, -5.0D-02, -4.3D-01, r^2= 2.1D+00
   Bfn.  Coefficient  Atom+Function         Bfn.  Coefficient  Atom+Function  
  ----- ------------  ---------------      ----- ------------  ---------------
   176      0.229870  4 O  pz               173      0.225411  4 O  pz         
   121     -0.208258  3 O  pz               118     -0.203983  3 O  pz         
   120     -0.174520  3 O  py                59      0.172159  2 C  s          
   117     -0.169918  3 O  py               175     -0.156213  4 O  py         
   179      0.154376  4 O  pz               172     -0.152217  4 O  py         

 Vector   17  Occ=0.000000D+00  E=-5.377733D-02
              MO Center= -4.3D-03, -5.7D-02,  4.4D-02, r^2= 2.4D+00
   Bfn.  Coefficient  Atom+Function         Bfn.  Coefficient  Atom+Function  
  ----- ------------  ---------------      ----- ------------  ---------------
    59      0.430863  2 C  s                273     -0.329595  7 H  s          
   274      0.322031  7 H  s                 12     -0.308385  1 C  px         
     9     -0.298308  1 C  px                 6     -0.281251  1 C  px         
   249     -0.255007  6 H  s                223     -0.189614  5 H  s          
   122      0.188478  3 O  px               177      0.184053  4 O  px         

 Vector   18  Occ=0.000000D+00  E=-2.687809D-02
              MO Center= -8.1D-02, -6.2D-02,  2.0D+00, r^2= 1.1D+01
   Bfn.  Coefficient  Atom+Function         Bfn.  Coefficient  Atom+Function  
  ----- ------------  ---------------      ----- ------------  ---------------
    59      1.481953  2 C  s                  4     -0.839935  1 C  s          
     5     -0.785944  1 C  s                 60     -0.786593  2 C  s          
   274      0.631422  7 H  s                249      0.608412  6 H  s          
   248     -0.562310  6 H  s                273     -0.506748  7 H  s          
    88      0.476380  2 C  dyy              224      0.467371  5 H  s          

 Vector   19  Occ=0.000000D+00  E= 1.346153D-02
              MO Center=  4.2D-01,  7.7D-01,  2.1D+00, r^2= 1.6D+01
   Bfn.  Coefficient  Atom+Function         Bfn.  Coefficient  Atom+Function  
  ----- ------------  ---------------      ----- ------------  ---------------
   224      3.633501  5 H  s                 60     -2.402768  2 C  s          
   274     -2.138714  7 H  s                 59      2.092415  2 C  s          
     5      2.081113  1 C  s                273     -1.649413  7 H  s          
   249     -1.409611  6 H  s                 68     -1.376638  2 C  py         
   248     -1.192466  6 H  s                 71     -1.139288  2 C  py         

 Vector   20  Occ=0.000000D+00  E= 1.383590D-02
              MO Center= -5.2D-01, -5.9D-01,  1.9D+00, r^2= 1.6D+01
   Bfn.  Coefficient  Atom+Function         Bfn.  Coefficient  Atom+Function  
  ----- ------------  ---------------      ----- ------------  ---------------
   249      3.278278  6 H  s                274     -2.750909  7 H  s          
   248      1.773540  6 H  s                273     -1.586213  7 H  s          
    67      1.496239  2 C  px                70      1.032356  2 C  px         
   224     -0.524867  5 H  s                 68     -0.337315  2 C  py         
    87      0.324578  2 C  dxz               60     -0.314795  2 C  s          

 Vector   21  Occ=0.000000D+00  E= 1.619875D-02
              MO Center= -1.2D-02,  1.4D-01,  9.3D-01, r^2= 1.6D+01
   Bfn.  Coefficient  Atom+Function         Bfn.  Coefficient  Atom+Function  
  ----- ------------  ---------------      ----- ------------  ---------------
    60      8.376211  2 C  s                  5     -7.191014  1 C  s          
    59     -7.214865  2 C  s                223      3.469122  5 H  s          
    72     -2.702516  2 C  pz               248      2.657540  6 H  s          
   273      2.466454  7 H  s                 17     -2.095525  1 C  pz         
    88     -1.966921  2 C  dyy               85     -1.882740  2 C  dxx        

 Vector   22  Occ=0.000000D+00  E= 4.473704D-02
              MO Center= -1.5D-02, -3.2D-02, -3.1D-01, r^2= 1.4D+01
   Bfn.  Coefficient  Atom+Function         Bfn.  Coefficient  Atom+Function  
  ----- ------------  ---------------      ----- ------------  ---------------
    17      3.064402  1 C  pz                 5      2.102745  1 C  s          
    60     -2.004126  2 C  s                 69     -1.127402  2 C  pz         
    72     -1.037266  2 C  pz               273      0.978847  7 H  s          
   248      0.874077  6 H  s                  4     -0.797770  1 C  s          
    35     -0.654360  1 C  dzz              170      0.639938  4 O  s          

 Vector   23  Occ=0.000000D+00  E= 5.339538D-02
              MO Center= -1.3D-01, -3.8D-01, -4.3D-02, r^2= 1.5D+01
   Bfn.  Coefficient  Atom+Function         Bfn.  Coefficient  Atom+Function  
  ----- ------------  ---------------      ----- ------------  ---------------
    59      3.321545  2 C  s                223     -3.026365  5 H  s          
   115      2.962073  3 O  s                  5     -2.921591  1 C  s          
    16     -2.432526  1 C  py               170     -2.108058  4 O  s          
   224      1.503654  5 H  s                273     -1.337398  7 H  s          
    15     -1.278705  1 C  px               232      0.907266  5 H  py         

 Vector   24  Occ=0.000000D+00  E= 6.018889D-02
              MO Center= -2.2D-01,  2.7D-01,  4.0D-01, r^2= 1.5D+01
   Bfn.  Coefficient  Atom+Function         Bfn.  Coefficient  Atom+Function  
  ----- ------------  ---------------      ----- ------------  ---------------
    59      4.184565  2 C  s                273     -3.939091  7 H  s          
     5     -2.699387  1 C  s                 15      2.299214  1 C  px         
   249      2.257952  6 H  s                274     -1.869533  7 H  s          
    88      1.273681  2 C  dyy              223     -1.210158  5 H  s          
   224      1.125238  5 H  s                 60     -0.991209  2 C  s          

 Vector   25  Occ=0.000000D+00  E= 6.264938D-02
              MO Center=  1.8D-01,  1.5D-01,  1.6D+00, r^2= 1.9D+01
   Bfn.  Coefficient  Atom+Function         Bfn.  Coefficient  Atom+Function  
  ----- ------------  ---------------      ----- ------------  ---------------
    59     -8.474946  2 C  s                  5      7.809266  1 C  s          
     4      3.984114  1 C  s                 60      3.572354  2 C  s          
   248      3.313253  6 H  s                273      2.855617  7 H  s          
   224     -2.722420  5 H  s                170     -2.620239  4 O  s          
    90     -2.260670  2 C  dzz               85     -2.233858  2 C  dxx        

 Vector   26  Occ=0.000000D+00  E= 6.899520D-02
              MO Center=  3.9D-01,  1.1D-01,  1.5D+00, r^2= 1.4D+01
   Bfn.  Coefficient  Atom+Function         Bfn.  Coefficient  Atom+Function  
  ----- ------------  ---------------      ----- ------------  ---------------
    59      6.841332  2 C  s                274      4.309496  7 H  s          
    60     -4.247842  2 C  s                248     -4.253665  6 H  s          
     4     -3.891029  1 C  s                 70     -3.656090  2 C  px         
   249     -2.696528  6 H  s                223     -2.155151  5 H  s          
    67     -2.118649  2 C  px                90      1.781160  2 C  dzz        

 Vector   27  Occ=0.000000D+00  E= 7.010572D-02
              MO Center= -3.9D-01, -7.2D-01,  1.8D+00, r^2= 1.6D+01
   Bfn.  Coefficient  Atom+Function         Bfn.  Coefficient  Atom+Function  
  ----- ------------  ---------------      ----- ------------  ---------------
    59     12.433806  2 C  s                  4     -7.963982  1 C  s          
    60     -7.920618  2 C  s                223     -5.311797  5 H  s          
   249      4.031499  6 H  s                 71      3.335217  2 C  py         
    90      3.239745  2 C  dzz               88      3.200704  2 C  dyy        
   224     -2.919238  5 H  s                170      2.899097  4 O  s          

 Vector   28  Occ=0.000000D+00  E= 8.851835D-02
              MO Center=  6.3D-01,  1.5D+00,  2.3D+00, r^2= 1.6D+01
   Bfn.  Coefficient  Atom+Function         Bfn.  Coefficient  Atom+Function  
  ----- ------------  ---------------      ----- ------------  ---------------
    60     -8.798512  2 C  s                  5      8.738541  1 C  s          
   224      7.539375  5 H  s                 59      6.820977  2 C  s          
   273     -5.015116  7 H  s                223      4.796045  5 H  s          
    68     -4.727315  2 C  py               274     -4.002756  7 H  s          
    71     -3.815077  2 C  py               248     -3.722148  6 H  s          

 Vector   29  Occ=0.000000D+00  E= 9.281065D-02
              MO Center= -7.6D-01, -9.4D-01,  2.1D+00, r^2= 1.5D+01
   Bfn.  Coefficient  Atom+Function         Bfn.  Coefficient  Atom+Function  
  ----- ------------  ---------------      ----- ------------  ---------------
   248      7.315849  6 H  s                273     -6.542318  7 H  s          
   249      6.214886  6 H  s                274     -5.621301  7 H  s          
    67      5.507970  2 C  px                70      3.461173  2 C  px         
     5      2.432985  1 C  s                 60     -2.334695  2 C  s          
   256      1.960814  6 H  px                87      1.616829  2 C  dxz        

 Vector   30  Occ=0.000000D+00  E= 1.056611D-01
              MO Center=  7.1D-02,  9.1D-03, -5.2D-01, r^2= 1.4D+01
   Bfn.  Coefficient  Atom+Function         Bfn.  Coefficient  Atom+Function  
  ----- ------------  ---------------      ----- ------------  ---------------
     5     26.133854  1 C  s                 60    -19.936167  2 C  s          
    17      5.989989  1 C  pz               170     -5.868087  4 O  s          
   115     -5.659319  3 O  s                 72      4.444090  2 C  pz         
     4      3.425237  1 C  s                273      2.282062  7 H  s          
   223     -2.229752  5 H  s                224     -2.212469  5 H  s          

 Vector   31  Occ=0.000000D+00  E= 1.172612D-01
              MO Center= -1.5D-01, -1.7D-01,  7.1D-01, r^2= 1.6D+01
   Bfn.  Coefficient  Atom+Function         Bfn.  Coefficient  Atom+Function  
  ----- ------------  ---------------      ----- ------------  ---------------
    59     20.479671  2 C  s                  5     18.920458  1 C  s          
    60    -18.730515  2 C  s                  4     -9.232545  1 C  s          
   248     -6.621765  6 H  s                273     -6.511459  7 H  s          
   223     -4.956505  5 H  s                 72      4.885824  2 C  pz         
    85      4.865314  2 C  dxx               35     -4.775839  1 C  dzz        

 Vector   32  Occ=0.000000D+00  E= 1.317814D-01
              MO Center= -1.5D-01, -9.6D-02,  1.2D+00, r^2= 1.4D+01
   Bfn.  Coefficient  Atom+Function         Bfn.  Coefficient  Atom+Function  
  ----- ------------  ---------------      ----- ------------  ---------------
     5     15.380541  1 C  s                  4     12.485232  1 C  s          
    60    -10.099942  2 C  s                 69      6.736475  2 C  pz         
   115     -6.357600  3 O  s                170     -6.135284  4 O  s          
    72      5.134137  2 C  pz               223     -4.338187  5 H  s          
   273     -3.749203  7 H  s                248     -3.718144  6 H  s          

 Vector   33  Occ=0.000000D+00  E= 1.404480D-01
              MO Center= -1.7D-02,  8.3D-02, -4.6D-01, r^2= 1.2D+01
   Bfn.  Coefficient  Atom+Function         Bfn.  Coefficient  Atom+Function  
  ----- ------------  ---------------      ----- ------------  ---------------
   223      2.762840  5 H  s                 59     -2.360737  2 C  s          
    68     -1.840481  2 C  py                 4      1.657669  1 C  s          
   180     -1.643391  4 O  px               125      1.592309  3 O  px         
   249     -1.590878  6 H  s                 33      1.510815  1 C  dyy        
     5      1.487025  1 C  s                115     -1.386830  3 O  s          

 Vector   34  Occ=0.000000D+00  E= 1.455515D-01
              MO Center=  2.5D-01,  1.8D-01, -4.1D-01, r^2= 1.3D+01
   Bfn.  Coefficient  Atom+Function         Bfn.  Coefficient  Atom+Function  
  ----- ------------  ---------------      ----- ------------  ---------------
   223      5.766167  5 H  s                 59     -4.401888  2 C  s          
    68     -3.645642  2 C  py                 4      3.144763  1 C  s          
    34      2.610416  1 C  dyz              115     -2.379795  3 O  s          
   127     -2.343661  3 O  pz                 5      2.282511  1 C  s          
    67     -2.092336  2 C  px                13      1.874452  1 C  py         

 Vector   35  Occ=0.000000D+00  E= 1.712838D-01
              MO Center=  1.5D-02,  1.1D-01, -1.6D-01, r^2= 1.4D+01
   Bfn.  Coefficient  Atom+Function         Bfn.  Coefficient  Atom+Function  
  ----- ------------  ---------------      ----- ------------  ---------------
    59     26.180736  2 C  s                248    -13.595979  6 H  s          
   273    -11.211032  7 H  s                 60     -8.961810  2 C  s          
   170      6.782060  4 O  s                 85      5.357559  2 C  dxx        
    88      4.796239  2 C  dyy               90      4.650529  2 C  dzz        
    34     -4.451153  1 C  dyz              181      4.081584  4 O  py         

 Vector   36  Occ=0.000000D+00  E= 1.829705D-01
              MO Center= -4.2D-01,  1.9D-01, -8.1D-01, r^2= 1.4D+01
   Bfn.  Coefficient  Atom+Function         Bfn.  Coefficient  Atom+Function  
  ----- ------------  ---------------      ----- ------------  ---------------
    59     17.315392  2 C  s                223    -12.071645  5 H  s          
    60     -6.467844  2 C  s                248     -6.130413  6 H  s          
   273     -5.939722  7 H  s                 88      5.377623  2 C  dyy        
    69      5.208302  2 C  pz                17      4.249632  1 C  pz         
    85      3.232297  2 C  dxx              115      3.241810  3 O  s          

 Vector   37  Occ=0.000000D+00  E= 1.847031D-01
              MO Center=  2.3D-01, -4.8D-01,  7.1D-01, r^2= 1.1D+01
   Bfn.  Coefficient  Atom+Function         Bfn.  Coefficient  Atom+Function  
  ----- ------------  ---------------      ----- ------------  ---------------
     4      5.075764  1 C  s                 86      4.872563  2 C  dxy        
    87      3.223618  2 C  dxz              223     -3.209150  5 H  s          
   248     -2.324469  6 H  s                 69      2.241995  2 C  pz         
    17      2.220840  1 C  pz               283     -2.180119  7 H  pz         
    68      2.067607  2 C  py                67     -1.959907  2 C  px         

 Vector   38  Occ=0.000000D+00  E= 1.862213D-01
              MO Center= -2.2D-02, -6.3D-02, -3.1D-01, r^2= 1.3D+01
   Bfn.  Coefficient  Atom+Function         Bfn.  Coefficient  Atom+Function  
  ----- ------------  ---------------      ----- ------------  ---------------
    59      7.699299  2 C  s                248     -4.228602  6 H  s          
     4     -3.660228  1 C  s                  5     -3.235782  1 C  s          
   223     -3.181225  5 H  s                 15      2.787799  1 C  px         
    17     -2.705582  1 C  pz               115      2.595710  3 O  s          
   125     -2.188976  3 O  px               180     -2.156571  4 O  px         

 Vector   39  Occ=0.000000D+00  E= 1.944821D-01
              MO Center=  2.9D-01,  5.7D-01,  1.3D-01, r^2= 1.3D+01
   Bfn.  Coefficient  Atom+Function         Bfn.  Coefficient  Atom+Function  
  ----- ------------  ---------------      ----- ------------  ---------------
    59     12.069237  2 C  s                115     11.522143  3 O  s          
   223    -11.398503  5 H  s                  5    -10.113071  1 C  s          
     4     -4.113527  1 C  s                273     -4.036230  7 H  s          
    85      3.808582  2 C  dxx               69      3.669111  2 C  pz         
    34      3.386820  1 C  dyz              232      3.079651  5 H  py         

 Vector   40  Occ=0.000000D+00  E= 1.997670D-01
              MO Center=  2.2D-03, -4.1D-02,  1.4D-01, r^2= 1.4D+01
   Bfn.  Coefficient  Atom+Function         Bfn.  Coefficient  Atom+Function  
  ----- ------------  ---------------      ----- ------------  ---------------
     5     17.738448  1 C  s                 59    -11.203170  2 C  s          
   273      6.702308  7 H  s                248      6.000564  6 H  s          
    17      5.733639  1 C  pz                69     -5.694947  2 C  pz         
   170     -5.639379  4 O  s                115     -4.597934  3 O  s          
    60     -3.878577  2 C  s                 88     -3.453101  2 C  dyy        

 Vector   41  Occ=0.000000D+00  E= 2.303643D-01
              MO Center= -1.5D-01, -9.6D-02,  1.0D+00, r^2= 1.4D+01
   Bfn.  Coefficient  Atom+Function         Bfn.  Coefficient  Atom+Function  
  ----- ------------  ---------------      ----- ------------  ---------------
    60     34.852671  2 C  s                 59    -31.797719  2 C  s          
     5    -30.685857  1 C  s                  4     11.024751  1 C  s          
    14      9.966729  1 C  pz               170      9.588786  4 O  s          
    90     -7.959814  2 C  dzz               69      7.733090  2 C  pz         
   223      6.649817  5 H  s                 85     -6.133265  2 C  dxx        

 Vector   42  Occ=0.000000D+00  E= 2.333370D-01
              MO Center= -2.4D-01, -1.0D+00,  1.5D+00, r^2= 1.3D+01
   Bfn.  Coefficient  Atom+Function         Bfn.  Coefficient  Atom+Function  
  ----- ------------  ---------------      ----- ------------  ---------------
   170     11.975636  4 O  s                223     -8.777777  5 H  s          
     4     -7.107219  1 C  s                 68      6.510420  2 C  py         
     5     -6.207324  1 C  s                224     -5.647282  5 H  s          
    71      5.288157  2 C  py               249      4.485043  6 H  s          
    67      4.159665  2 C  px                33     -4.046314  1 C  dyy        

 Vector   43  Occ=0.000000D+00  E= 2.371550D-01
              MO Center=  1.6D-01,  4.5D-01,  1.6D+00, r^2= 1.3D+01
   Bfn.  Coefficient  Atom+Function         Bfn.  Coefficient  Atom+Function  
  ----- ------------  ---------------      ----- ------------  ---------------
   248     13.448046  6 H  s                273    -10.725593  7 H  s          
    67     10.510250  2 C  px                68     -6.641788  2 C  py         
    86     -5.710600  2 C  dxy               70      5.534634  2 C  px         
   223      5.526829  5 H  s                274     -5.385487  7 H  s          
     5      5.079636  1 C  s                170     -4.453408  4 O  s          

 Vector   44  Occ=0.000000D+00  E= 2.583987D-01
              MO Center= -2.5D-01,  4.1D-02,  9.9D-01, r^2= 1.3D+01
   Bfn.  Coefficient  Atom+Function         Bfn.  Coefficient  Atom+Function  
  ----- ------------  ---------------      ----- ------------  ---------------
    59     17.384091  2 C  s                  4    -15.426542  1 C  s          
   273    -11.291432  7 H  s                115     10.595440  3 O  s          
   170     10.453297  4 O  s                248     -8.416712  6 H  s          
    60     -8.272307  2 C  s                 33     -6.517094  1 C  dyy        
    68     -6.396646  2 C  py                90      6.035121  2 C  dzz        

 Vector   45  Occ=0.000000D+00  E= 2.590674D-01
              MO Center= -8.9D-02,  3.8D-02,  9.4D-01, r^2= 1.1D+01
   Bfn.  Coefficient  Atom+Function         Bfn.  Coefficient  Atom+Function  
  ----- ------------  ---------------      ----- ------------  ---------------
   273      9.402616  7 H  s                 59     -6.902665  2 C  s          
    60      5.627495  2 C  s                248     -5.420700  6 H  s          
   223      4.939471  5 H  s                  5     -4.224876  1 C  s          
    67     -4.136981  2 C  px               170      4.111950  4 O  s          
   115      3.177633  3 O  s                 88     -3.131967  2 C  dyy        

 Vector   46  Occ=0.000000D+00  E= 2.712277D-01
              MO Center=  5.2D-02,  1.8D-01,  1.3D+00, r^2= 1.2D+01
   Bfn.  Coefficient  Atom+Function         Bfn.  Coefficient  Atom+Function  
  ----- ------------  ---------------      ----- ------------  ---------------
     4     12.226927  1 C  s                  5     11.596897  1 C  s          
    59    -11.047894  2 C  s                223      9.922598  5 H  s          
    88     -6.344315  2 C  dyy               69      6.179527  2 C  pz         
    90     -5.204202  2 C  dzz               14      5.128721  1 C  pz         
    68     -4.913853  2 C  py               115     -4.847187  3 O  s          

 Vector   47  Occ=0.000000D+00  E= 2.785087D-01
              MO Center= -4.3D-01, -5.3D-01,  2.3D+00, r^2= 9.2D+00
   Bfn.  Coefficient  Atom+Function         Bfn.  Coefficient  Atom+Function  
  ----- ------------  ---------------      ----- ------------  ---------------
   248     17.283044  6 H  s                273    -16.041511  7 H  s          
    67     13.972611  2 C  px               256      5.264098  6 H  px         
   282     -4.231680  7 H  py               223     -3.796623  5 H  s          
   249      3.702387  6 H  s                274     -3.253569  7 H  s          
   281      2.953469  7 H  px               258     -2.869612  6 H  pz         

 Vector   48  Occ=0.000000D+00  E= 2.823229D-01
              MO Center=  3.2D-01,  5.8D-01,  1.5D+00, r^2= 1.0D+01
   Bfn.  Coefficient  Atom+Function         Bfn.  Coefficient  Atom+Function  
  ----- ------------  ---------------      ----- ------------  ---------------
   273     15.917165  7 H  s                 59    -13.589403  2 C  s          
   248     11.342223  6 H  s                 68      7.910074  2 C  py         
     5     -7.029365  1 C  s                 69     -6.042122  2 C  pz         
    60      5.782766  2 C  s                 88     -4.926902  2 C  dyy        
   115     -4.698146  3 O  s                 85     -4.077953  2 C  dxx        

 Vector   49  Occ=0.000000D+00  E= 2.871901D-01
              MO Center=  1.5D-01,  5.4D-01,  1.2D+00, r^2= 1.1D+01
   Bfn.  Coefficient  Atom+Function         Bfn.  Coefficient  Atom+Function  
  ----- ------------  ---------------      ----- ------------  ---------------
   223     27.128129  5 H  s                 59    -16.971563  2 C  s          
    68    -12.953632  2 C  py                69     -9.068464  2 C  pz         
     5     -8.741493  1 C  s                 60      7.837990  2 C  s          
    88     -7.115350  2 C  dyy              115     -7.036291  3 O  s          
    14     -6.326313  1 C  pz               233     -5.875090  5 H  pz         

 Vector   50  Occ=0.000000D+00  E= 2.941266D-01
              MO Center= -3.8D-02, -2.3D-01,  9.4D-01, r^2= 9.7D+00
   Bfn.  Coefficient  Atom+Function         Bfn.  Coefficient  Atom+Function  
  ----- ------------  ---------------      ----- ------------  ---------------
    60     -9.493147  2 C  s                248     -9.235003  6 H  s          
     5      9.038573  1 C  s                 85      6.347958  2 C  dxx        
   170      5.354303  4 O  s                273     -4.393154  7 H  s          
    90      4.293814  2 C  dzz               59      3.499601  2 C  s          
    88      3.195436  2 C  dyy              115     -3.127741  3 O  s          

 Vector   51  Occ=0.000000D+00  E= 3.164721D-01
              MO Center= -6.0D-02,  3.8D-02,  4.1D-01, r^2= 1.0D+01
   Bfn.  Coefficient  Atom+Function         Bfn.  Coefficient  Atom+Function  
  ----- ------------  ---------------      ----- ------------  ---------------
     4     10.137311  1 C  s                273     -7.022005  7 H  s          
     5      5.972856  1 C  s                 14      4.731923  1 C  pz         
   115     -4.493281  3 O  s                 87      4.430525  2 C  dxz        
    69      4.356045  2 C  pz                60     -4.195205  2 C  s          
    32      3.846156  1 C  dxz               35      3.059318  1 C  dzz        

 Vector   52  Occ=0.000000D+00  E= 3.268174D-01
              MO Center= -2.4D-02, -2.4D-01, -7.6D-01, r^2= 9.6D+00
   Bfn.  Coefficient  Atom+Function         Bfn.  Coefficient  Atom+Function  
  ----- ------------  ---------------      ----- ------------  ---------------
    59     28.171733  2 C  s                  4    -24.714154  1 C  s          
    35    -14.305433  1 C  dzz               14    -11.904950  1 C  pz         
   170     11.247904  4 O  s                 60    -10.267559  2 C  s          
   115      9.746798  3 O  s                  5      9.664487  1 C  s          
    69     -9.346787  2 C  pz               273     -8.723903  7 H  s          

 Vector   53  Occ=0.000000D+00  E= 3.329233D-01
              MO Center=  1.7D-01,  1.3D-01,  1.3D+00, r^2= 9.0D+00
   Bfn.  Coefficient  Atom+Function         Bfn.  Coefficient  Atom+Function  
  ----- ------------  ---------------      ----- ------------  ---------------
   248     20.798469  6 H  s                273    -17.535227  7 H  s          
    67     10.118939  2 C  px               256      6.206708  6 H  px         
     4      5.922984  1 C  s                 87      5.864838  2 C  dxz        
    59     -5.079375  2 C  s                281      4.629639  7 H  px         
    86     -3.659685  2 C  dxy              282     -3.443793  7 H  py         

 Vector   54  Occ=0.000000D+00  E= 3.374095D-01
              MO Center=  4.4D-02, -1.4D-03,  1.4D+00, r^2= 9.9D+00
   Bfn.  Coefficient  Atom+Function         Bfn.  Coefficient  Atom+Function  
  ----- ------------  ---------------      ----- ------------  ---------------
    59     28.557589  2 C  s                  4    -20.338993  1 C  s          
    90     11.121615  2 C  dzz              273    -11.067524  7 H  s          
     5     -9.226307  1 C  s                 14     -8.024649  1 C  pz         
   223     -6.610711  5 H  s                115      6.102567  3 O  s          
    35     -4.371425  1 C  dzz               69     -4.130363  2 C  pz         

 Vector   55  Occ=0.000000D+00  E= 3.631612D-01
              MO Center= -1.4D-01, -7.5D-02,  6.5D-01, r^2= 9.6D+00
   Bfn.  Coefficient  Atom+Function         Bfn.  Coefficient  Atom+Function  
  ----- ------------  ---------------      ----- ------------  ---------------
    59     28.034606  2 C  s                248    -23.518605  6 H  s          
     5    -17.151930  1 C  s                273    -13.551503  7 H  s          
   223     11.732425  5 H  s                170     11.049438  4 O  s          
    68     -8.417614  2 C  py                 4     -7.086073  1 C  s          
   256     -6.524616  6 H  px                67     -5.378439  2 C  px         

 Vector   56  Occ=0.000000D+00  E= 3.675046D-01
              MO Center= -3.8D-02,  5.1D-01,  3.0D-01, r^2= 8.7D+00
   Bfn.  Coefficient  Atom+Function         Bfn.  Coefficient  Atom+Function  
  ----- ------------  ---------------      ----- ------------  ---------------
     5     18.413880  1 C  s                  4     17.966021  1 C  s          
    59    -14.437661  2 C  s                115    -13.638154  3 O  s          
   170     -8.151353  4 O  s                 60     -7.641537  2 C  s          
   223      6.992432  5 H  s                248     -5.948742  6 H  s          
    35      5.632425  1 C  dzz               89     -4.889881  2 C  dyz        

 Vector   57  Occ=0.000000D+00  E= 3.704644D-01
              MO Center=  5.1D-02, -4.7D-01,  1.2D+00, r^2= 8.5D+00
   Bfn.  Coefficient  Atom+Function         Bfn.  Coefficient  Atom+Function  
  ----- ------------  ---------------      ----- ------------  ---------------
   273     25.175681  7 H  s                 59    -13.374849  2 C  s          
   223     -8.087613  5 H  s                 68      7.191127  2 C  py         
    89      6.145098  2 C  dyz              282      5.485677  7 H  py         
   248      4.988553  6 H  s                281     -4.936618  7 H  px         
     4     -4.477558  1 C  s                 69     -4.244831  2 C  pz         

 Vector   58  Occ=0.000000D+00  E= 3.886392D-01
              MO Center= -1.7D-01, -2.5D-01,  1.3D+00, r^2= 9.9D+00
   Bfn.  Coefficient  Atom+Function         Bfn.  Coefficient  Atom+Function  
  ----- ------------  ---------------      ----- ------------  ---------------
   223     53.128618  5 H  s                 59    -41.461659  2 C  s          
    68    -16.371733  2 C  py                88    -16.200413  2 C  dyy        
     4     13.443955  1 C  s                 86    -12.503086  2 C  dxy        
   232    -10.788812  5 H  py                67     -8.029614  2 C  px         
    90     -7.529334  2 C  dzz              257     -7.234499  6 H  py         

 Vector   59  Occ=0.000000D+00  E= 3.991452D-01
              MO Center=  3.4D-02, -5.6D-02,  1.6D+00, r^2= 8.7D+00
   Bfn.  Coefficient  Atom+Function         Bfn.  Coefficient  Atom+Function  
  ----- ------------  ---------------      ----- ------------  ---------------
    59     43.024529  2 C  s                273    -26.678292  7 H  s          
   223    -20.668263  5 H  s                 87    -12.296312  2 C  dxz        
    88     12.250903  2 C  dyy               60     -9.844716  2 C  s          
     4     -9.726481  1 C  s                231      7.717491  5 H  px         
    86     -7.505672  2 C  dxy               90      7.495993  2 C  dzz        

 Vector   60  Occ=0.000000D+00  E= 4.058995D-01
              MO Center= -1.6D-01,  1.7D-01,  1.2D+00, r^2= 1.1D+01
   Bfn.  Coefficient  Atom+Function         Bfn.  Coefficient  Atom+Function  
  ----- ------------  ---------------      ----- ------------  ---------------
    59    118.132108  2 C  s                248    -61.220158  6 H  s          
   223    -47.361566  5 H  s                273    -46.203881  7 H  s          
    60    -35.394822  2 C  s                 85     28.143502  2 C  dxx        
     5     26.873992  1 C  s                 88     23.015640  2 C  dyy        
    90     19.906149  2 C  dzz               69     16.981223  2 C  pz         

 Vector   61  Occ=0.000000D+00  E= 4.297292D-01
              MO Center= -2.4D-01, -2.4D-01,  7.7D-01, r^2= 9.4D+00
   Bfn.  Coefficient  Atom+Function         Bfn.  Coefficient  Atom+Function  
  ----- ------------  ---------------      ----- ------------  ---------------
    59     22.420740  2 C  s                  5     17.909198  1 C  s          
    60    -13.883167  2 C  s                 89     11.305341  2 C  dyz        
   248    -11.033610  6 H  s                273    -10.039631  7 H  s          
   115     -8.957574  3 O  s                170     -8.106786  4 O  s          
    85      6.126236  2 C  dxx               90      4.959652  2 C  dzz        

 Vector   62  Occ=0.000000D+00  E= 4.378232D-01
              MO Center=  9.9D-02,  3.2D-01,  2.0D-01, r^2= 9.7D+00
   Bfn.  Coefficient  Atom+Function         Bfn.  Coefficient  Atom+Function  
  ----- ------------  ---------------      ----- ------------  ---------------
   273     14.262996  7 H  s                248    -12.159357  6 H  s          
    86     10.651866  2 C  dxy               87     -5.298372  2 C  dxz        
    67     -5.102584  2 C  px                88     -5.073183  2 C  dyy        
    85      4.900504  2 C  dxx               31     -4.597214  1 C  dxy        
    68      4.569215  2 C  py               231     -3.776313  5 H  px         

 Vector   63  Occ=0.000000D+00  E= 4.450692D-01
              MO Center= -3.0D-02,  2.1D-01,  2.7D-01, r^2= 9.9D+00
   Bfn.  Coefficient  Atom+Function         Bfn.  Coefficient  Atom+Function  
  ----- ------------  ---------------      ----- ------------  ---------------
   223     22.799991  5 H  s                 89    -15.379889  2 C  dyz        
     5    -12.945145  1 C  s                170     12.034428  4 O  s          
   273    -12.060164  7 H  s                 34    -11.614611  1 C  dyz        
    59     -9.783649  2 C  s                248     -9.770650  6 H  s          
    13     -8.701764  1 C  py                60      7.967680  2 C  s          

 Vector   64  Occ=0.000000D+00  E= 4.703960D-01
              MO Center=  1.1D-01, -2.6D-02, -2.6D-01, r^2= 9.4D+00
   Bfn.  Coefficient  Atom+Function         Bfn.  Coefficient  Atom+Function  
  ----- ------------  ---------------      ----- ------------  ---------------
    59     22.450625  2 C  s                223    -16.979998  5 H  s          
    34     14.492115  1 C  dyz              115     11.727410  3 O  s          
    60    -10.503644  2 C  s                170    -10.080567  4 O  s          
    13     -9.374785  1 C  py                32      7.982233  1 C  dxz        
    69      7.000333  2 C  pz                85      5.895779  2 C  dxx        

 Vector   65  Occ=0.000000D+00  E= 4.870476D-01
              MO Center= -5.7D-04, -2.7D-01,  4.5D-01, r^2= 7.8D+00
   Bfn.  Coefficient  Atom+Function         Bfn.  Coefficient  Atom+Function  
  ----- ------------  ---------------      ----- ------------  ---------------
   248     24.446782  6 H  s                273    -15.250807  7 H  s          
    12      9.941369  1 C  px                59     -9.650670  2 C  s          
   223      9.147620  5 H  s                 87      8.507807  2 C  dxz        
   256      6.847090  6 H  px                32      5.722411  1 C  dxz        
   282     -4.972925  7 H  py                34     -4.033913  1 C  dyz        

 Vector   66  Occ=0.000000D+00  E= 4.916433D-01
              MO Center= -3.2D-02, -7.0D-02,  1.1D+00, r^2= 9.5D+00
   Bfn.  Coefficient  Atom+Function         Bfn.  Coefficient  Atom+Function  
  ----- ------------  ---------------      ----- ------------  ---------------
     4     22.797948  1 C  s                170    -15.178669  4 O  s          
     5     13.792430  1 C  s                273    -12.770348  7 H  s          
    31     11.668098  1 C  dxy               33     10.641723  1 C  dyy        
   115    -10.693438  3 O  s                 86     -6.452154  2 C  dxy        
   169     -6.100401  4 O  s                248      6.074284  6 H  s          

 Vector   67  Occ=0.000000D+00  E= 5.046488D-01
              MO Center= -2.0D-01, -1.8D-01,  7.8D-01, r^2= 9.7D+00
   Bfn.  Coefficient  Atom+Function         Bfn.  Coefficient  Atom+Function  
  ----- ------------  ---------------      ----- ------------  ---------------
    59     55.677798  2 C  s                223    -36.763864  5 H  s          
     4    -31.522801  1 C  s                248    -21.585800  6 H  s          
   273    -21.648119  7 H  s                 90     13.876996  2 C  dzz        
   115     13.753418  3 O  s                 85     11.828706  2 C  dxx        
   170     11.580499  4 O  s                 88     11.460419  2 C  dyy        

 Vector   68  Occ=0.000000D+00  E= 5.421165D-01
              MO Center=  1.9D-01,  5.0D-01,  7.3D-01, r^2= 8.3D+00
   Bfn.  Coefficient  Atom+Function         Bfn.  Coefficient  Atom+Function  
  ----- ------------  ---------------      ----- ------------  ---------------
     4     25.503302  1 C  s                 69     13.700267  2 C  pz         
    13     11.494271  1 C  py                86    -10.586182  2 C  dxy        
    59     -9.335864  2 C  s                 68     -9.228838  2 C  py         
    33      8.161354  1 C  dyy               60      8.192238  2 C  s          
    31      7.610770  1 C  dxy              115     -7.150893  3 O  s          

 Vector   69  Occ=0.000000D+00  E= 5.707444D-01
              MO Center= -1.7D-01,  1.8D-01,  6.8D-01, r^2= 9.3D+00
   Bfn.  Coefficient  Atom+Function         Bfn.  Coefficient  Atom+Function  
  ----- ------------  ---------------      ----- ------------  ---------------
   248     48.841603  6 H  s                223     31.281928  5 H  s          
     4    -28.155893  1 C  s                 67     22.690525  2 C  px         
    69    -22.209037  2 C  pz                14    -20.294580  1 C  pz         
    68    -19.513659  2 C  py                59    -18.400772  2 C  s          
    86    -13.598654  2 C  dxy              273     -9.960570  7 H  s          

 Vector   70  Occ=0.000000D+00  E= 5.743150D-01
              MO Center=  4.8D-02, -6.3D-02,  6.2D-01, r^2= 9.3D+00
   Bfn.  Coefficient  Atom+Function         Bfn.  Coefficient  Atom+Function  
  ----- ------------  ---------------      ----- ------------  ---------------
   273     52.396389  7 H  s                  4    -24.932300  1 C  s          
    69    -24.931992  2 C  pz                67    -23.330036  2 C  px         
    14    -23.164799  1 C  pz               223     22.561007  5 H  s          
    59    -20.391878  2 C  s                 88    -14.264278  2 C  dyy        
   281     -8.038119  7 H  px                35     -7.975786  1 C  dzz        

 Vector   71  Occ=0.000000D+00  E= 5.759489D-01
              MO Center=  5.6D-02, -1.3D-02,  1.6D+00, r^2= 9.0D+00
   Bfn.  Coefficient  Atom+Function         Bfn.  Coefficient  Atom+Function  
  ----- ------------  ---------------      ----- ------------  ---------------
   248     49.956307  6 H  s                 59    -39.728066  2 C  s          
   273     32.397959  7 H  s                 68     31.648745  2 C  py         
   223    -30.371199  5 H  s                 67     19.561916  2 C  px         
     4     15.808333  1 C  s                 85    -12.345211  2 C  dxx        
   256      9.273887  6 H  px                90     -7.158717  2 C  dzz        

 Vector   72  Occ=0.000000D+00  E= 6.091907D-01
              MO Center= -5.5D-02, -2.1D-01,  1.6D-01, r^2= 8.3D+00
   Bfn.  Coefficient  Atom+Function         Bfn.  Coefficient  Atom+Function  
  ----- ------------  ---------------      ----- ------------  ---------------
    59     48.160034  2 C  s                223    -35.579301  5 H  s          
   248    -24.427743  6 H  s                  4    -20.831194  1 C  s          
    68     12.591097  2 C  py                88      9.688542  2 C  dyy        
     5     -9.084642  1 C  s                 85      9.061845  2 C  dxx        
    90      8.100431  2 C  dzz              273     -8.031702  7 H  s          

 Vector   73  Occ=0.000000D+00  E= 6.138126D-01
              MO Center= -4.3D-03, -3.3D-02,  7.8D-01, r^2= 8.8D+00
   Bfn.  Coefficient  Atom+Function         Bfn.  Coefficient  Atom+Function  
  ----- ------------  ---------------      ----- ------------  ---------------
    59    111.945817  2 C  s                223    -51.826426  5 H  s          
   273    -40.747892  7 H  s                  4    -32.627536  1 C  s          
   248    -29.178319  6 H  s                 14    -26.083518  1 C  pz         
    88     25.374909  2 C  dyy               90     25.300325  2 C  dzz        
    85     20.687910  2 C  dxx               60    -18.572490  2 C  s          

 Vector   74  Occ=0.000000D+00  E= 6.264973D-01
              MO Center= -2.3D-01, -5.3D-01,  1.4D-02, r^2= 7.5D+00
   Bfn.  Coefficient  Atom+Function         Bfn.  Coefficient  Atom+Function  
  ----- ------------  ---------------      ----- ------------  ---------------
    59     24.736841  2 C  s                248    -16.342662  6 H  s          
    67     -8.697873  2 C  px               223     -7.256122  5 H  s          
    14     -7.145513  1 C  pz                88      7.029493  2 C  dyy        
     4     -6.217786  1 C  s                 90      5.812714  2 C  dzz        
    60     -5.539493  2 C  s                 35     -3.921805  1 C  dzz        

 Vector   75  Occ=0.000000D+00  E= 6.412238D-01
              MO Center=  2.9D-01,  4.8D-01,  1.0D-02, r^2= 7.9D+00
   Bfn.  Coefficient  Atom+Function         Bfn.  Coefficient  Atom+Function  
  ----- ------------  ---------------      ----- ------------  ---------------
    59     40.453497  2 C  s                273    -23.475927  7 H  s          
   248    -15.812612  6 H  s                223    -14.441545  5 H  s          
     4    -13.416626  1 C  s                 88     12.758669  2 C  dyy        
    90     10.639816  2 C  dzz               60     -9.417420  2 C  s          
    85      8.583471  2 C  dxx               14     -6.608335  1 C  pz         

 Vector   76  Occ=0.000000D+00  E= 6.613916D-01
              MO Center= -1.0D-01, -2.6D-01, -3.2D-03, r^2= 6.6D+00
   Bfn.  Coefficient  Atom+Function         Bfn.  Coefficient  Atom+Function  
  ----- ------------  ---------------      ----- ------------  ---------------
   223     11.779891  5 H  s                 59     -8.690921  2 C  s          
     4      6.626159  1 C  s                 87     -4.563165  2 C  dxz        
    68     -4.397426  2 C  py                88     -4.378711  2 C  dyy        
    86     -3.721664  2 C  dxy               90     -3.629481  2 C  dzz        
   248      3.557721  6 H  s                 60      3.461855  2 C  s          

 Vector   77  Occ=0.000000D+00  E= 6.683243D-01
              MO Center=  1.2D-01,  4.7D-01, -1.0D-01, r^2= 8.1D+00
   Bfn.  Coefficient  Atom+Function         Bfn.  Coefficient  Atom+Function  
  ----- ------------  ---------------      ----- ------------  ---------------
   223     29.721719  5 H  s                 59    -23.028548  2 C  s          
     4    -14.737314  1 C  s                 69    -13.606027  2 C  pz         
   170      7.682338  4 O  s                 68     -7.484041  2 C  py         
   232     -6.164565  5 H  py               273      4.822003  7 H  s          
    14     -4.531077  1 C  pz                88     -4.522576  2 C  dyy        

 Vector   78  Occ=0.000000D+00  E= 6.835796D-01
              MO Center=  1.6D-01,  2.2D-02,  3.8D-02, r^2= 7.4D+00
   Bfn.  Coefficient  Atom+Function         Bfn.  Coefficient  Atom+Function  
  ----- ------------  ---------------      ----- ------------  ---------------
    59     13.239042  2 C  s                273    -10.800458  7 H  s          
   223     -9.079692  5 H  s                 69      5.762347  2 C  pz         
    13     -4.961520  1 C  py                 4      4.667294  1 C  s          
   170     -4.014063  4 O  s                 68      3.981786  2 C  py         
    32      3.581999  1 C  dxz               88      2.984570  2 C  dyy        

 Vector   79  Occ=0.000000D+00  E= 6.966898D-01
              MO Center=  1.3D-01,  8.8D-02, -7.1D-01, r^2= 8.9D+00
   Bfn.  Coefficient  Atom+Function         Bfn.  Coefficient  Atom+Function  
  ----- ------------  ---------------      ----- ------------  ---------------
   115    -11.871064  3 O  s                  4     11.090367  1 C  s          
    59     -9.569743  2 C  s                114      7.955023  3 O  s          
   169     -7.406220  4 O  s                 69      6.768731  2 C  pz         
    14      6.523837  1 C  pz                10     -6.034084  1 C  py         
   170      6.048022  4 O  s                 54     -5.341535  1 C  fyzz       

 Vector   80  Occ=0.000000D+00  E= 7.062810D-01
              MO Center= -3.5D-01, -2.1D-01,  6.9D-01, r^2= 7.6D+00
   Bfn.  Coefficient  Atom+Function         Bfn.  Coefficient  Atom+Function  
  ----- ------------  ---------------      ----- ------------  ---------------
    59     30.615677  2 C  s                248    -18.508487  6 H  s          
   273     -8.266099  7 H  s                 89     -8.058647  2 C  dyz        
    33     -7.831348  1 C  dyy              170      7.287387  4 O  s          
     4     -7.012252  1 C  s                256     -6.755882  6 H  px         
   115      5.885805  3 O  s                 35     -5.549553  1 C  dzz        

 Vector   81  Occ=0.000000D+00  E= 7.191008D-01
              MO Center=  3.1D-01,  2.1D-01, -8.9D-02, r^2= 7.6D+00
   Bfn.  Coefficient  Atom+Function         Bfn.  Coefficient  Atom+Function  
  ----- ------------  ---------------      ----- ------------  ---------------
    59     50.274371  2 C  s                273    -21.637148  7 H  s          
   248    -19.601097  6 H  s                  5     16.883899  1 C  s          
   223    -14.276604  5 H  s                 60    -12.375291  2 C  s          
    85     12.230527  2 C  dxx               35    -11.011560  1 C  dzz        
    68    -11.051328  2 C  py                 4     -9.093861  1 C  s          

 Vector   82  Occ=0.000000D+00  E= 7.269767D-01
              MO Center=  1.8D-02,  7.0D-02,  1.4D+00, r^2= 6.6D+00
   Bfn.  Coefficient  Atom+Function         Bfn.  Coefficient  Atom+Function  
  ----- ------------  ---------------      ----- ------------  ---------------
    59     18.898449  2 C  s                223    -10.430299  5 H  s          
   248    -10.470258  6 H  s                 88      4.617136  2 C  dyy        
    68      4.022873  2 C  py                32     -3.575933  1 C  dxz        
    87     -3.538407  2 C  dxz              231      3.187501  5 H  px         
     4     -3.129232  1 C  s                 90      3.021685  2 C  dzz        

 Vector   83  Occ=0.000000D+00  E= 7.344223D-01
              MO Center= -1.5D-01, -1.5D-01,  1.2D+00, r^2= 7.0D+00
[...]
              MO Center=  1.6D-02, -1.9D-02, -5.9D-01, r^2= 2.7D+00
   Bfn.  Coefficient  Atom+Function         Bfn.  Coefficient  Atom+Function  
  ----- ------------  ---------------      ----- ------------  ---------------
   119     10.350305  3 O  px               174    -10.335893  4 O  px         
   120     -6.068784  3 O  py               175      6.024393  4 O  py         
   146     -5.246964  3 O  fxxx             149     -5.253516  3 O  fxyy       
   151     -5.266002  3 O  fxzz             201      5.233524  4 O  fxxx       
   204      5.241197  4 O  fxyy             206      5.250337  4 O  fxzz       

 Vector  287  Occ=0.000000D+00  E= 1.423508D+01
              MO Center=  2.2D-02, -6.9D-03, -5.2D-01, r^2= 2.8D+00
   Bfn.  Coefficient  Atom+Function         Bfn.  Coefficient  Atom+Function  
  ----- ------------  ---------------      ----- ------------  ---------------
    59     20.551431  2 C  s                 14    -12.694832  1 C  pz         
     4    -12.602866  1 C  s                121     10.948749  3 O  pz         
   176     10.664642  4 O  pz               179      7.795746  4 O  pz         
   114     -6.541267  3 O  s                 68     -6.297653  2 C  py         
    69     -6.116526  2 C  pz               124      5.683531  3 O  pz         

 Vector  288  Occ=0.000000D+00  E= 1.482304D+01
              MO Center= -4.5D-02, -1.2D-01, -5.8D-01, r^2= 2.7D+00
   Bfn.  Coefficient  Atom+Function         Bfn.  Coefficient  Atom+Function  
  ----- ------------  ---------------      ----- ------------  ---------------
    59     20.892415  2 C  s                248    -15.898220  6 H  s          
   273    -13.234188  7 H  s                 34    -12.532694  1 C  dyz        
   176    -11.376929  4 O  pz               121     10.573418  3 O  pz         
   179     -7.083339  4 O  pz                32     -7.011384  1 C  dxz        
   124      6.651785  3 O  pz               210      5.716940  4 O  fzzz       

 Vector  289  Occ=0.000000D+00  E= 1.509323D+01
              MO Center= -3.9D-02, -1.1D-01, -5.0D-01, r^2= 2.6D+00
   Bfn.  Coefficient  Atom+Function         Bfn.  Coefficient  Atom+Function  
  ----- ------------  ---------------      ----- ------------  ---------------
     4     15.014695  1 C  s                 50     10.753191  1 C  fxyz       
   223    -10.332260  5 H  s                178     -9.636782  4 O  py         
   248     -9.396438  6 H  s                 69      9.057893  2 C  pz         
    53      8.400082  1 C  fyyz             114      8.160757  3 O  s          
     5      8.025022  1 C  s                175     -8.061966  4 O  py         

 Vector  290  Occ=0.000000D+00  E= 1.652014D+01
              MO Center=  2.8D-01,  4.5D-01, -6.1D-01, r^2= 1.9D+00
   Bfn.  Coefficient  Atom+Function         Bfn.  Coefficient  Atom+Function  
  ----- ------------  ---------------      ----- ------------  ---------------
     4     18.938870  1 C  s                114    -13.379508  3 O  s          
   112    -10.592847  3 O  s                167     -7.287938  4 O  s          
   115     -6.659760  3 O  s                  5      5.869642  1 C  s          
   123      5.613987  3 O  py               170     -5.412504  4 O  s          
   169     -5.057208  4 O  s                 59     -4.878865  2 C  s          

 Vector  291  Occ=0.000000D+00  E= 1.662813D+01
              MO Center= -2.4D-01, -4.7D-01, -6.3D-01, r^2= 1.8D+00
   Bfn.  Coefficient  Atom+Function         Bfn.  Coefficient  Atom+Function  
  ----- ------------  ---------------      ----- ------------  ---------------
   169     14.035763  4 O  s                114    -10.491967  3 O  s          
   167      9.297215  4 O  s                112     -5.148081  3 O  s          
    59     -4.980555  2 C  s                178      4.962414  4 O  py         
   179      4.599771  4 O  pz                13      4.174420  1 C  py         
   123      3.906999  3 O  py               175      3.911989  4 O  py         

 Vector  292  Occ=0.000000D+00  E= 1.812377D+01
              MO Center=  3.4D-01,  5.7D-01, -4.5D-01, r^2= 2.0D+00
   Bfn.  Coefficient  Atom+Function         Bfn.  Coefficient  Atom+Function  
  ----- ------------  ---------------      ----- ------------  ---------------
    59     40.042140  2 C  s                  4    -21.668947  1 C  s          
   223    -21.146387  5 H  s                 13    -15.015382  1 C  py         
   248    -13.496586  6 H  s                273    -13.200202  7 H  s          
   123    -12.052121  3 O  py               120    -10.680334  3 O  py         
   124     10.373762  3 O  pz                12     -8.591797  1 C  px         

 Vector  293  Occ=0.000000D+00  E= 1.886244D+01
              MO Center= -2.9D-01, -5.5D-01, -3.7D-01, r^2= 2.7D+00
   Bfn.  Coefficient  Atom+Function         Bfn.  Coefficient  Atom+Function  
  ----- ------------  ---------------      ----- ------------  ---------------
     4     30.178309  1 C  s                 14    -15.914623  1 C  pz         
    59     14.602246  2 C  s                 31     12.710286  1 C  dxy        
    50    -12.597840  1 C  fxyz              53    -11.829950  1 C  fyyz       
    33     10.321001  1 C  dyy              222    -10.156378  5 H  s          
   175     -9.521089  4 O  py               272     -9.052055  7 H  s          

 Vector  294  Occ=0.000000D+00  E= 2.732617D+01
              MO Center= -4.1D-03,  1.1D-02, -3.3D-02, r^2= 1.6D+00
   Bfn.  Coefficient  Atom+Function         Bfn.  Coefficient  Atom+Function  
  ----- ------------  ---------------      ----- ------------  ---------------
     2     30.074835  1 C  s                114    -20.281559  3 O  s          
   169    -16.643699  4 O  s                  1     14.837739  1 C  s          
    59     12.811060  2 C  s                 25     11.206644  1 C  dxy        
    53     -9.933237  1 C  fyyz              33     -9.064503  1 C  dyy        
   123      8.479460  3 O  py               170      7.639927  4 O  s          

 Vector  295  Occ=0.000000D+00  E= 3.079017D+01
              MO Center= -5.2D-02,  1.1D-02,  1.5D+00, r^2= 1.0D+00
   Bfn.  Coefficient  Atom+Function         Bfn.  Coefficient  Atom+Function  
  ----- ------------  ---------------      ----- ------------  ---------------
    57     32.405724  2 C  s                 56     15.964197  2 C  s          
   223    -15.350885  5 H  s                 59     14.618880  2 C  s          
   248     -9.443651  6 H  s                273     -8.408116  7 H  s          
   222     -7.165170  5 H  s                  4     -6.926194  1 C  s          
    90      6.804377  2 C  dzz              247     -6.729476  6 H  s          


   alpha - beta orbital overlaps 
   ----------------------------- 


   alpha      1      2      3      4      5      6      7      8      9     10
    beta      1      2      3      4      5      6      7      8     10     11
 overlap   1.000  1.000  1.000  1.000  1.000  1.000  0.999  0.998  0.979  0.979


   alpha     11     12     13     14     15     16     17     18     19     20
    beta      9     12     13     14     16     15     17     18     19     20
 overlap   0.990  0.992  1.000  0.999  0.997  0.995  1.000  1.000  0.981  0.989


   alpha     21     22     23     24     25     26     27     28     29     30
    beta     21     22     23     24     25     26     27     28     29     30
 overlap   0.990  0.993  0.996  0.996  0.997  0.990  0.993  0.999  1.000  0.992


   alpha     31     32     33     34     35     36     37     38     39     40
    beta     31     32     33     34     35     36     37     38     39     40
 overlap   0.991  0.993  0.982  0.981  0.996  0.670  0.686  0.710  0.997  0.991


   alpha     41     42     43     44     45     46     47     48     49     50
    beta     41     42     43     45     44     46     47     48     49     50
 overlap   0.990  0.988  0.992  0.941  0.951  0.983  0.999  0.971  0.985  0.969


   alpha     51     52     53     54     55     56     57     58     59     60
    beta     51     52     53     54     55     57     56     58     59     60
 overlap   0.999  0.990  0.988  0.997  0.981  0.843  0.858  0.998  0.998  0.998


   alpha     61     62     63     64     65     66     67     68     69     70
    beta     61     62     63     64     65     66     67     68     69     71
 overlap   0.998  0.997  0.997  0.997  0.997  0.994  0.996  0.998  0.885  0.883


   alpha     71     72     73     74     75     76     77     78     79     80
    beta     70     72     73     74     75     76     77     78     79     80
 overlap   0.999  0.990  0.992  0.998  0.999  0.997  0.997  0.997  0.996  0.996


   alpha     81     82     83     84     85     86     87     88     89     90
    beta     81     82     83     84     85     86     87     88     90     89
 overlap   0.990  0.995  0.996  0.996  0.983  0.981  0.999  0.991  0.748  0.749


   alpha     91     92     93     94     95     96     97     98     99    100
    beta     91     92     93     94     95     96     97     98     99    100
 overlap   0.999  0.999  0.999  0.999  0.990  0.990  0.999  0.998  0.825  0.827


   alpha    101    102    103    104    105    106    107    108    109    110
    beta    101    102    103    104    105    106    107    108    109    110
 overlap   0.992  0.992  0.995  0.998  0.996  0.996  0.998  0.994  0.891  0.885


   alpha    111    112    113    114    115    116    117    118    119    120
    beta    112    111    113    114    115    116    117    118    119    120
 overlap   0.782  0.788  1.000  0.998  0.999  0.998  0.999  1.000  0.999  0.999


   alpha    121    122    123    124    125    126    127    128    129    130
    beta    121    122    123    124    125    126    127    128    129    130
 overlap   0.999  0.998  0.998  1.000  0.999  0.999  0.999  0.996  0.994  0.998


   alpha    131    132    133    134    135    136    137    138    139    140
    beta    131    132    133    134    135    136    137    138    139    140
 overlap   0.997  0.996  0.994  0.991  0.997  0.997  0.997  0.999  0.998  0.999


   alpha    141    142    143    144    145    146    147    148    149    150
    beta    141    142    143    144    145    146    147    148    149    150
 overlap   0.992  0.992  0.990  0.994  0.882  0.883  0.885  0.884  0.993  0.995


   alpha    151    152    153    154    155    156    157    158    159    160
    beta    151    152    153    154    155    156    157    158    159    160
 overlap   0.994  0.993  0.994  0.979  0.987  0.980  0.988  0.983  0.995  0.994


   alpha    161    162    163    164    165    166    167    168    169    170
    beta    161    162    163    164    165    166    167    168    169    170
 overlap   0.999  0.999  0.998  0.976  0.975  0.999  0.999  0.999  0.993  0.999


   alpha    171    172    173    174    175    176    177    178    179    180
    beta    171    172    173    174    175    176    177    178    179    180
 overlap   0.992  0.999  0.999  0.998  0.998  0.986  0.985  0.999  1.000  1.000


   alpha    181    182    183    184    185    186    187    188    189    190
    beta    181    182    183    184    185    186    187    188    189    190
 overlap   0.969  0.983  0.984  0.998  0.999  0.994  0.995  0.996  0.996  0.989


   alpha    191    192    193    194    195    196    197    198    199    200
    beta    191    192    193    194    195    196    197    198    199    200
 overlap   0.986  0.995  0.997  0.999  0.997  1.000  0.999  0.998  1.000  0.999


   alpha    201    202    203    204    205    206    207    208    209    210
    beta    201    202    203    204    205    206    207    208    209    210
 overlap   0.997  0.997  0.904  0.903  0.975  0.976  0.997  0.992  0.992  0.999


   alpha    211    212    213    214    215    216    217    218    219    220
    beta    211    212    213    214    215    216    217    218    219    220
 overlap   0.999  1.000  0.999  0.999  1.000  0.999  0.999  0.999  0.998  0.999


   alpha    221    222    223    224    225    226    227    228    229    230
    beta    221    222    223    224    225    226    227    228    229    230
 overlap   0.999  0.976  0.977  0.999  1.000  1.000  1.000  1.000  1.000  1.000


   alpha    231    232    233    234    235    236    237    238    239    240
    beta    231    232    233    234    235    236    237    238    239    240
 overlap   0.991  0.902  0.911  0.999  0.999  0.999  0.994  0.998  1.000  0.976


   alpha    241    242    243    244    245    246    247    248    249    250
    beta    241    242    243    244    245    246    247    248    249    250
 overlap   0.955  0.978  0.998  1.000  0.999  1.000  0.999  0.998  0.998  0.997


   alpha    251    252    253    254    255    256    257    258    259    260
    beta    251    252    254    253    255    256    257    258    259    260
 overlap   0.993  0.993  0.898  0.917  0.964  0.997  0.986  0.977  0.976  0.982


   alpha    261    262    263    264    265    266    267    268    269    270
    beta    261    262    263    264    265    266    267    268    269    270
 overlap   0.991  0.997  0.982  0.981  0.996  0.997  0.999  0.996  0.994  0.992


   alpha    271    272    273    274    275    276    277    278    279    280
    beta    271    272    273    274    275    276    277    278    279    280
 overlap   0.997  0.983  0.983  0.999  0.999  0.999  0.999  0.999  1.000  1.000


   alpha    281    282    283    284    285    286    287    288    289    290
    beta    281    282    283    284    285    286    287    288    289    290
 overlap   0.986  0.986  0.999  1.000  1.000  1.000  1.000  1.000  1.000  1.000


   alpha    291    292    293    294    295
    beta    291    292    293    294    295
 overlap   1.000  1.000  1.000  1.000  1.000

     --------------------------
     Expectation value of S2:  
     --------------------------
      <S2> =      0.7527 (Exact =     0.7500)


 center of mass
 --------------
 x =  -0.00310934 y =  -0.00300533 z =   0.14134644

 moments of inertia (a.u.)
 ------------------
         295.403347395470         -63.732951487858           6.034023418606
         -63.732951487858         218.618066700752          -1.689263893289
           6.034023418606          -1.689263893289         160.516343935927

     Multipole analysis of the density
     ---------------------------------

     L   x y z        total         alpha         beta         nuclear
     -   - - -        -----         -----         ----         -------
     0   0 0 0     -0.000000    -16.000000    -15.000000     31.000000

     1   1 0 0     -0.034892      0.102716      0.126090     -0.263699
     1   0 1 0      0.008426      0.043543      0.041417     -0.076534
     1   0 0 1      1.182889     -3.917528     -4.408575      9.508992

     2   2 0 0    -17.526892    -21.247614    -20.039071     23.759793
     2   1 1 0     -1.536001    -17.493336    -15.967499     31.924834
     2   1 0 1     -0.057112      1.821090      1.679854     -3.558056
     2   0 2 0    -19.386111    -42.320989    -39.272091     62.206968
     2   0 1 1     -0.058521     -0.502900     -0.474273      0.918652
     2   0 0 2    -15.009809    -63.585026    -59.589724    108.164941


 Task  times  cpu:      187.2s     wall:      189.7s


                                NWChem Input Module
                                -------------------


 Summary of allocated global arrays
-----------------------------------
  No active global arrays


MA_summarize_allocated_blocks: starting scan ...
heap block 'gridpts', handle 122, address 0x1152e280:
	type of elements:		double precision
	number of elements:		33554432
	address of client space:	0x1152e300
	index for client space:		11724729
	total number of bytes:		268435592
MA_summarize_allocated_blocks: scan completed: 1 heap block, 0 stack blocks
MA usage statistics:

	allocation statistics:
					      heap	     stack
					      ----	     -----
	current number of blocks	         1	         0
	maximum number of blocks	        21	        53
	current total bytes		 268435592	         0
	maximum total bytes		 268976464	  36891784
	maximum total K-bytes		    268977	     36892
	maximum total M-bytes		       269	        37


                                     CITATION
                                     --------
                Please cite the following reference when publishing
                           results obtained with NWChem:

          E. Apra, E. J. Bylaska, W. A. de Jong, N. Govind, K. Kowalski,
       T. P. Straatsma, M. Valiev, H. J. J. van Dam, Y. Alexeev, J. Anchell,
       V. Anisimov, F. W. Aquino, R. Atta-Fynn, J. Autschbach, N. P. Bauman,
     J. C. Becca, D. E. Bernholdt, K. Bhaskaran-Nair, S. Bogatko, P. Borowski,
         J. Boschen, J. Brabec, A. Bruner, E. Cauet, Y. Chen, G. N. Chuev,
      C. J. Cramer, J. Daily, M. J. O. Deegan, T. H. Dunning Jr., M. Dupuis,
   K. G. Dyall, G. I. Fann, S. A. Fischer, A. Fonari, H. Fruchtl, L. Gagliardi,
      J. Garza, N. Gawande, S. Ghosh, K. Glaesemann, A. W. Gotz, J. Hammond,
       V. Helms, E. D. Hermes, K. Hirao, S. Hirata, M. Jacquelin, L. Jensen,
   B. G. Johnson, H. Jonsson, R. A. Kendall, M. Klemm, R. Kobayashi, V. Konkov,
      S. Krishnamoorthy, M. Krishnan, Z. Lin, R. D. Lins, R. J. Littlefield,
      A. J. Logsdail, K. Lopata, W. Ma, A. V. Marenich, J. Martin del Campo,
   D. Mejia-Rodriguez, J. E. Moore, J. M. Mullin, T. Nakajima, D. R. Nascimento,
    J. A. Nichols, P. J. Nichols, J. Nieplocha, A. Otero-de-la-Roza, B. Palmer,
    A. Panyala, T. Pirojsirikul, B. Peng, R. Peverati, J. Pittner, L. Pollack,
   R. M. Richard, P. Sadayappan, G. C. Schatz, W. A. Shelton, D. W. Silverstein,
   D. M. A. Smith, T. A. Soares, D. Song, M. Swart, H. L. Taylor, G. S. Thomas,
            V. Tipparaju, D. G. Truhlar, K. Tsemekhman, T. Van Voorhis,
      A. Vazquez-Mayagoitia, P. Verma, O. Villa, A. Vishnu, K. D. Vogiatzis,
        D. Wang, J. H. Weare, M. J. Williamson, T. L. Windus, K. Wolinski,
        A. T. Wong, Q. Wu, C. Yang, Q. Yu, M. Zacharias, Z. Zhang, Y. Zhao,
                                and R. J. Harrison
                        "NWChem: Past, present, and future
                         J. Chem. Phys. 152, 184102 (2020)
                               doi:10.1063/5.0004997

                                      AUTHORS
                                      -------
  E. Apra, E. J. Bylaska, N. Govind, K. Kowalski, M. Valiev, D. Mejia-Rodriguez,
       A. Kunitsa, N. P. Bauman, A. Panyala, W. A. de Jong, T. P. Straatsma,
   H. J. J. van Dam, D. Wang, T. L. Windus, J. Hammond, J. Autschbach, A. Woods,
    K. Bhaskaran-Nair, J. Brabec, K. Lopata, S. A. Fischer, S. Krishnamoorthy,
     M. Jacquelin, W. Ma, M. Klemm, O. Villa, Y. Chen, V. Anisimov, F. Aquino,
     S. Hirata, M. T. Hackler, E. Hermes, L. Jensen, J. E. Moore, J. C. Becca,
      V. Konjkov, T. Risthaus, M. Malagoli, A. Marenich, A. Otero-de-la-Roza,
        J. Mullin, P. Nichols, R. Peverati, J. Pittner, Y. Zhao, P.-D. Fan,
        A. Fonari, M. J. Williamson, R. J. Harrison, J. R. Rehr, M. Dupuis,
     D. Silverstein, D. M. A. Smith, J. Nieplocha, V. Tipparaju, M. Krishnan,
     B. E. Van Kuiken, A. Vazquez-Mayagoitia, M. Swart, Q. Wu, T. Van Voorhis,
     A. A. Auer, M. Nooijen, L. D. Crosby, E. Brown, G. Cisneros, G. I. Fann,
   H. Fruchtl, J. Garza, K. Hirao, R. A. Kendall, J. A. Nichols, K. Tsemekhman,
    K. Wolinski, J. Anchell, D. E. Bernholdt, P. Borowski, T. Clark, D. Clerc,
   H. Dachsel, M. J. O. Deegan, K. Dyall, D. Elwood, E. Glendening, M. Gutowski,
   A. C. Hess, J. Jaffe, B. G. Johnson, J. Ju, R. Kobayashi, R. Kutteh, Z. Lin,
   R. Littlefield, X. Long, B. Meng, T. Nakajima, S. Niu, L. Pollack, M. Rosing,
   K. Glaesemann, G. Sandrone, M. Stave, H. Taylor, G. Thomas, J. H. van Lenthe,
                               A. T. Wong, Z. Zhang.

 Total times  cpu:      187.3s     wall:      189.8s
