 argument  1 = m1e/mol.nwi
                                         
                                         


             Northwest Computational Chemistry Package (NWChem) 7.2.2
             --------------------------------------------------------


                    Environmental Molecular Sciences Laboratory
                       Pacific Northwest National Laboratory
                                Richland, WA 99352

                              Copyright (c) 1994-2022
                       Pacific Northwest National Laboratory
                            Battelle Memorial Institute

             NWChem is an open-source computational chemistry package
                        distributed under the terms of the
                      Educational Community License (ECL) 2.0
             A copy of the license is included with this distribution
                              in the LICENSE.TXT file

                                  ACKNOWLEDGMENT
                                  --------------

            This software and its documentation were developed at the
            EMSL at Pacific Northwest National Laboratory, a multiprogram
            national laboratory, operated for the U.S. Department of Energy
            by Battelle under Contract Number DE-AC05-76RL01830. Support
            for this work was provided by the Department of Energy Office
            of Biological and Environmental Research, Office of Basic
            Energy Sciences, and the Office of Advanced Scientific Computing.


           Job information
           ---------------

    hostname        = r011.ib.bridges2.psc.edu
    program         = nwchem
    date            = Tue Oct  1 14:29:33 2024

    compiled        = Mon_Mar_18_17:03:37_2024
    source          = /ocean/projects/pscstaff/mmadrid/nwchem-7.2.2
    nwchem branch   = 7.2.2
    nwchem revision = 74936fb9
    ga revision     = 5.8.0
    use scalapack   = F
    input           = m1e/mol.nwi
    prefix          = dft.
    data base       = .//dft.db
    status          = startup
    nproc           =       15
    time left       =     -1s



           Memory information
           ------------------

    heap     =   67108864 doubles =    512.0 Mbytes
    stack    =   67108861 doubles =    512.0 Mbytes
    global   =  134217728 doubles =   1024.0 Mbytes (distinct from heap & stack)
    total    =  268435453 doubles =   2048.0 Mbytes
    verify   = yes
    hardfail = no 


           Directory information
           ---------------------

  0 permanent = ./
  0 scratch   = /jet/home/hmt47/nwchem_scratch/




                                NWChem Input Module
                                -------------------


  library name resolved from: environment
  library file name is: </opt/packages/nwchem/nwchem7.2.2/share/nwchem/libraries/>
  


 Summary of "ao basis" -> "" (cartesian)
 ------------------------------------------------------------------------------
       Tag                 Description            Shells   Functions and Types
 ---------------- ------------------------------  ------  ---------------------
 *                        aug-cc-pVTZ                 on all atoms 


  pbe96 is a nonlocal functional; adding pw91lda local functional. 

 Scaling coordinates for geometry "geometry" by  1.889725989
 (inverse scale =  0.529177249)



                             Geometry "geometry" -> ""
                             -------------------------

 Output coordinates in angstroms (scale by  1.889725989 to convert to a.u.)

  No.       Tag          Charge          X              Y              Z
 ---- ---------------- ---------- -------------- -------------- --------------
    1 N                    7.0000     0.00000000     0.00000000     0.00000000
    2 O                    8.0000     0.55344300     0.94679500    -0.59264200
    3 O                    8.0000    -0.54227900    -0.96266200    -0.60351600

      Atomic Mass 
      ----------- 

      N                 14.003070
      O                 15.994910


 Effective nuclear repulsion energy (a.u.)      62.6939861693

            Nuclear Dipole moment (a.u.) 
            ----------------------------
        X                 Y               Z
 ---------------- ---------------- ----------------
     0.1687752075    -0.2398742581   -18.0832868724


            XYZ format geometry
            -------------------
     3
 geometry
 N                     0.00000000     0.00000000     0.00000000
 O                     0.55344300     0.94679500    -0.59264200
 O                    -0.54227900    -0.96266200    -0.60351600

 ==============================================================================
                                internuclear distances
 ------------------------------------------------------------------------------
       center one      |      center two      | atomic units |  angstroms
 ------------------------------------------------------------------------------
    2 O                |   1 N                |     2.35568  |     1.24657
    3 O                |   1 N                |     2.37912  |     1.25897
 ------------------------------------------------------------------------------
                         number of included internuclear distances:          2
 ==============================================================================



 ==============================================================================
                                 internuclear angles
 ------------------------------------------------------------------------------
        center 1       |       center 2       |       center 3       |  degrees
 ------------------------------------------------------------------------------
    2 O                |   1 N                |   3 O                |   122.96
 ------------------------------------------------------------------------------
                            number of included internuclear angles:          1
 ==============================================================================





                           NWChem Geometry Optimization
                           ----------------------------


 maximum gradient threshold         (gmax) =   0.000450
 rms gradient threshold             (grms) =   0.000300
 maximum cartesian step threshold   (xmax) =   0.001800
 rms cartesian step threshold       (xrms) =   0.001200
 fixed trust radius                (trust) =   0.300000
 maximum step size to saddle      (sadstp) =   0.100000
 energy precision                  (eprec) =   5.0D-06
 maximum number of steps          (nptopt) =   40
 initial hessian option           (inhess) =    0
 line search option               (linopt) =    1
 hessian update option            (modupd) =    1
 saddle point option              (modsad) =    0
 initial eigen-mode to follow     (moddir) =    0
 initial variable to follow       (vardir) =    0
 follow first negative mode     (firstneg) =    T
 apply conjugacy                    (opcg) =    F
 source of zmatrix                         =           


          -------------------
          Energy Minimization
          -------------------


 Using diagonal initial Hessian 

          --------
          Step   0
          --------


                         Geometry "geometry" -> "geometry"
                         ---------------------------------

 Output coordinates in angstroms (scale by  1.889725989 to convert to a.u.)

  No.       Tag          Charge          X              Y              Z
 ---- ---------------- ---------- -------------- -------------- --------------
    1 N                    7.0000     0.00000000     0.00000000     0.00000000
    2 O                    8.0000     0.55344300     0.94679500    -0.59264200
    3 O                    8.0000    -0.54227900    -0.96266200    -0.60351600

      Atomic Mass 
      ----------- 

      N                 14.003070
      O                 15.994910


 Effective nuclear repulsion energy (a.u.)      62.6939861693

            Nuclear Dipole moment (a.u.) 
            ----------------------------
        X                 Y               Z
 ---------------- ---------------- ----------------
     0.1687752075    -0.2398742581   -18.0832868724


                                 NWChem DFT Module
                                 -----------------


                      Basis "ao basis" -> "ao basis" (cartesian)
                      -----
  N (Nitrogen)
  ------------
            Exponent  Coefficients 
       -------------- ---------------------------------------------------------
  1 S  1.14200000E+04  0.000523
  1 S  1.71200000E+03  0.004045
  1 S  3.89300000E+02  0.020775
  1 S  1.10000000E+02  0.080727
  1 S  3.55700000E+01  0.233074
  1 S  1.25400000E+01  0.433501
  1 S  4.64400000E+00  0.347472
  1 S  5.11800000E-01 -0.008508

  2 S  1.14200000E+04 -0.000115
  2 S  1.71200000E+03 -0.000895
  2 S  3.89300000E+02 -0.004624
  2 S  1.10000000E+02 -0.018528
  2 S  3.55700000E+01 -0.057339
  2 S  1.25400000E+01 -0.132076
  2 S  4.64400000E+00 -0.172510
  2 S  5.11800000E-01  0.599944

  3 S  1.29300000E+00  1.000000

  4 S  1.78700000E-01  1.000000

  5 S  5.76000000E-02  1.000000

  6 P  2.66300000E+01  0.014670
  6 P  5.94800000E+00  0.091764
  6 P  1.74200000E+00  0.298683

  7 P  5.55000000E-01  1.000000

  8 P  1.72500000E-01  1.000000

  9 P  4.91000000E-02  1.000000

 10 D  1.65400000E+00  1.000000

 11 D  4.69000000E-01  1.000000

 12 D  1.51000000E-01  1.000000

 13 F  1.09300000E+00  1.000000

 14 F  3.64000000E-01  1.000000

  O (Oxygen)
  ----------
            Exponent  Coefficients 
       -------------- ---------------------------------------------------------
  1 S  1.53300000E+04  0.000508
  1 S  2.29900000E+03  0.003929
  1 S  5.22400000E+02  0.020243
  1 S  1.47300000E+02  0.079181
  1 S  4.75500000E+01  0.230687
  1 S  1.67600000E+01  0.433118
  1 S  6.20700000E+00  0.350260
  1 S  6.88200000E-01 -0.008154

  2 S  1.53300000E+04 -0.000115
  2 S  2.29900000E+03 -0.000895
  2 S  5.22400000E+02 -0.004636
  2 S  1.47300000E+02 -0.018724
  2 S  4.75500000E+01 -0.058463
  2 S  1.67600000E+01 -0.136463
  2 S  6.20700000E+00 -0.175740
  2 S  6.88200000E-01  0.603418

  3 S  1.75200000E+00  1.000000

  4 S  2.38400000E-01  1.000000

  5 S  7.37600000E-02  1.000000

  6 P  3.44600000E+01  0.015928
  6 P  7.74900000E+00  0.099740
  6 P  2.28000000E+00  0.310492

  7 P  7.15600000E-01  1.000000

  8 P  2.14000000E-01  1.000000

  9 P  5.97400000E-02  1.000000

 10 D  2.31400000E+00  1.000000

 11 D  6.45000000E-01  1.000000

 12 D  2.14000000E-01  1.000000

 13 F  1.42800000E+00  1.000000

 14 F  5.00000000E-01  1.000000



 Summary of "ao basis" -> "ao basis" (cartesian)
 ------------------------------------------------------------------------------
       Tag                 Description            Shells   Functions and Types
 ---------------- ------------------------------  ------  ---------------------
 N                        aug-cc-pVTZ               14       55   5s4p3d2f
 O                        aug-cc-pVTZ               14       55   5s4p3d2f




 Summary of "ao basis" -> "ao basis" (cartesian)
 ------------------------------------------------------------------------------
       Tag                 Description            Shells   Functions and Types
 ---------------- ------------------------------  ------  ---------------------
 N                        aug-cc-pVTZ               14       55   5s4p3d2f
 O                        aug-cc-pVTZ               14       55   5s4p3d2f


  Caching 1-el integrals 

            General Information
            -------------------
          SCF calculation type: DFT
          Wavefunction type:  closed shell.
          No. of atoms     :     3
          No. of electrons :    24
           Alpha electrons :    12
            Beta electrons :    12
          Charge           :    -1
          Spin multiplicity:     1
          Use of symmetry is: off; symmetry adaption is: off
          Maximum number of iterations: 200
          AO basis - number of functions:   165
                     number of shells:    42
          Convergence on energy requested:  1.00D-06
          Convergence on density requested:  1.00D-05
          Convergence on gradient requested:  5.00D-04

              XC Information
              --------------
          PerdewBurkeErnzerhof Exchange Functional  1.000          
            Perdew 1991 LDA Correlation Functional  1.000 local    
           PerdewBurkeErnz. Correlation Functional  1.000 non-local

             Grid Information
             ----------------
          Grid used for XC integration:  medium    
          Radial quadrature: Mura-Knowles        
          Angular quadrature: Lebedev. 
          Tag              B.-S. Rad. Rad. Pts. Rad. Cut. Ang. Pts.
          ---              ---------- --------- --------- ---------
          N                   0.65       49           9.0       434
          O                   0.60       49          10.0       434
          Grid pruning is: on 
          Number of quadrature shells:   147
          Spatial weights used:  Erf1

          Convergence Information
          -----------------------
          Convergence aids based upon iterative change in 
          total energy or number of iterations. 
          Levelshifting, if invoked, occurs when the 
          HOMO/LUMO gap drops below (HL_TOL):  1.00D-02
          DIIS, if invoked, will attempt to extrapolate 
          using up to (NFOCK): 10 stored Fock matrices.

                    Damping(40%)  Levelshifting(0.0)       DIIS
                  --------------- ------------------- ---------------
          dE  on:    start            0.00D+00            start   
          dE off:  200 iters          0.00D+00          200 iters 


      Screening Tolerance Information
      -------------------------------
          Density screening/tol_rho:  1.00D-10
          AO Gaussian exp screening on grid/accAOfunc:  14
          CD Gaussian exp screening on grid/accCDfunc:  20
          XC Gaussian exp screening on grid/accXCfunc:  20
          Schwarz screening/accCoul:  1.00D-08


 Forcing the number of linearly dependent vectors to be  0

      Superposition of Atomic Density Guess
      -------------------------------------

 Sum of atomic energies:        -203.87269715
   Time after variat. SCF:      0.8
   Time prior to 1st pass:      0.8

 Grid_pts file          = /jet/home/hmt47/nwchem_scratch//dft.gridpts.00
 Record size in doubles =  12289        No. of grid_pts per rec  =   3070
 Max. records in memory =      3        Max. recs in file   =  67550051

 Grid integrated density:      22.999999178152
 Requested integration accuracy:   0.10E-05

           Memory utilization after 1st SCF pass: 
           Heap Space remaining (MW):       33.51            33513976
          Stack Space remaining (MW):       67.11            67107932

   convergence    iter        energy       DeltaE   RMS-Dens  Diis-err    time
 ---------------- ----- ----------------- --------- --------- ---------  ------
 d=40,ls=0.0,diis     1   -205.3782353108 -2.68D+02  1.06D-02  2.21D+01     1.6
 Grid integrated density:      23.599999131460
 Requested integration accuracy:   0.10E-05
 d=40,ls=0.0,diis     2   -205.1840786829  1.94D-01  3.59D-01  3.82D+00     2.0
 Grid integrated density:      23.839999160915
 Requested integration accuracy:   0.10E-05
 d=40,ls=0.0,diis     3   -204.8313147410  3.53D-01  1.96D-01  2.23D+00     2.4
 Grid integrated density:      23.935998959363
 Requested integration accuracy:   0.10E-05
 d=40,ls=0.0,diis     4   -205.0033427982 -1.72D-01  7.70D-02  3.47D-01     2.8
 Grid integrated density:      23.974398883342
 Requested integration accuracy:   0.10E-05
 d=40,ls=0.0,diis     5   -205.0321420188 -2.88D-02  2.97D-02  9.92D-02     3.2
 Grid integrated density:      23.989758823966
 Requested integration accuracy:   0.10E-05
  Resetting Diis
 d=40,ls=0.0,diis     6   -205.0436563344 -1.15D-02  9.93D-03  2.20D-02     3.7
 Grid integrated density:      23.995902810612
 Requested integration accuracy:   0.10E-05
 d=40,ls=0.0,diis     7   -205.0471464517 -3.49D-03  1.06D-02  5.13D-03     4.1
 Grid integrated density:      23.998360417959
 Requested integration accuracy:   0.10E-05
 d=40,ls=0.0,diis     8   -205.0473395797 -1.93D-04  1.71D-03  8.85D-03     4.5
 Grid integrated density:      23.999343454679
 Requested integration accuracy:   0.10E-05
 d=40,ls=0.0,diis     9   -205.0485334333 -1.19D-03  7.37D-04  1.50D-03     4.9
 Grid integrated density:      23.999736666553
 Requested integration accuracy:   0.10E-05
 d=40,ls=0.0,diis    10   -205.0489298712 -3.96D-04  8.74D-04  2.56D-04     5.4
 Grid integrated density:      23.999893950539
 Requested integration accuracy:   0.10E-05
 d=40,ls=0.0,diis    11   -205.0490723269 -1.42D-04  1.60D-04  6.95D-05     5.8
 Grid integrated density:      23.999956864543
 Requested integration accuracy:   0.10E-05
 d=40,ls=0.0,diis    12   -205.0491289585 -5.66D-05  2.19D-05  8.72D-06     6.2
 d=40,ls=0.0,diis    13   -205.0491505913 -2.16D-05  1.13D-05  1.30D-06     6.6
 d=40,ls=0.0,diis    14   -205.0491591312 -8.54D-06  4.86D-06  2.10D-07     7.1
 d=40,ls=0.0,diis    15   -205.0491625317 -3.40D-06  1.97D-06  3.38D-08     7.5
 d=40,ls=0.0,diis    16   -205.0491638893 -1.36D-06  7.87D-07  5.43D-09     7.9
  Singularity in Pulay matrix. Error and Fock matrices removed. 
  Singularity in Pulay matrix. Error and Fock matrices removed. 
 d=40,ls=0.0,diis    17   -205.0491644320 -5.43D-07  3.14D-07  8.69D-10     9.3


         Total DFT energy =     -205.049164431951
      One electron energy =     -411.710611304066
           Coulomb energy =      167.927613418968
    Exchange-Corr. energy =      -23.960152716188
 Nuclear repulsion energy =       62.693986169336

 Numeric. integr. density =       23.999998377824

     Total iterative time =      8.6s



                       DFT Final Molecular Orbital Analysis
                       ------------------------------------

 Vector    1  Occ=2.000000D+00  E=-1.853587D+01
              MO Center=  5.5D-01,  9.5D-01, -5.9D-01, r^2= 1.5D-02
   Bfn.  Coefficient  Atom+Function         Bfn.  Coefficient  Atom+Function  
  ----- ------------  ---------------      ----- ------------  ---------------
    56      0.978498  2 O  s                 58      0.063703  2 O  s          
    60     -0.037533  2 O  s                 59     -0.030625  2 O  s          

 Vector    2  Occ=2.000000D+00  E=-1.853281D+01
              MO Center= -5.4D-01, -9.6D-01, -6.0D-01, r^2= 1.5D-02
   Bfn.  Coefficient  Atom+Function         Bfn.  Coefficient  Atom+Function  
  ----- ------------  ---------------      ----- ------------  ---------------
   111      0.978228  3 O  s                113      0.063559  3 O  s          
   115     -0.037467  3 O  s                114     -0.030629  3 O  s          

 Vector    3  Occ=2.000000D+00  E=-1.388325D+01
              MO Center=  5.1D-06,  2.2D-06, -2.3D-04, r^2= 2.0D-02
   Bfn.  Coefficient  Atom+Function         Bfn.  Coefficient  Atom+Function  
  ----- ------------  ---------------      ----- ------------  ---------------
     1      0.992032  1 N  s                  3      0.057397  1 N  s          
     4     -0.047833  1 N  s                  2      0.041609  1 N  s          
    14      0.030143  1 N  pz         

 Vector    4  Occ=2.000000D+00  E=-8.360028D-01
              MO Center=  2.8D-02,  3.8D-02, -3.8D-01, r^2= 8.5D-01
   Bfn.  Coefficient  Atom+Function         Bfn.  Coefficient  Atom+Function  
  ----- ------------  ---------------      ----- ------------  ---------------
     2      0.314949  1 N  s                 57      0.262611  2 O  s          
   112      0.240711  3 O  s                 59      0.161922  2 O  s          
   114      0.145074  3 O  s                  4      0.132849  1 N  s          
     3      0.084104  1 N  s                  8     -0.076457  1 N  pz         
    58      0.072587  2 O  s                113      0.066726  3 O  s          

 Vector    5  Occ=2.000000D+00  E=-6.871628D-01
              MO Center= -2.3D-02, -5.2D-02, -4.1D-01, r^2= 1.2D+00
   Bfn.  Coefficient  Atom+Function         Bfn.  Coefficient  Atom+Function  
  ----- ------------  ---------------      ----- ------------  ---------------
   112     -0.339746  3 O  s                 57      0.321018  2 O  s          
   114     -0.260717  3 O  s                 59      0.251428  2 O  s          
     7      0.144690  1 N  py                10      0.103698  1 N  py         
   113     -0.092203  3 O  s                 58      0.086927  2 O  s          
     6      0.083002  1 N  px                 9      0.059487  1 N  px         

 Vector    6  Occ=2.000000D+00  E=-3.098594D-01
              MO Center=  1.9D-02,  1.8D-02, -5.2D-01, r^2= 1.9D+00
   Bfn.  Coefficient  Atom+Function         Bfn.  Coefficient  Atom+Function  
  ----- ------------  ---------------      ----- ------------  ---------------
     4      0.356648  1 N  s                  2      0.327922  1 N  s          
    59     -0.305822  2 O  s                114     -0.298453  3 O  s          
    57     -0.266924  2 O  s                112     -0.261899  3 O  s          
     5      0.127302  1 N  s                 60     -0.121377  2 O  s          
   115     -0.118188  3 O  s                 62     -0.101059  2 O  py         

 Vector    7  Occ=2.000000D+00  E=-2.007067D-01
              MO Center= -3.0D-03, -2.4D-02, -6.2D-01, r^2= 2.0D+00
   Bfn.  Coefficient  Atom+Function         Bfn.  Coefficient  Atom+Function  
  ----- ------------  ---------------      ----- ------------  ---------------
     7      0.184643  1 N  py               114      0.171239  3 O  s          
   112      0.163770  3 O  s                 59     -0.159988  2 O  s          
    57     -0.157160  2 O  s                 10      0.156353  1 N  py         
   117     -0.147588  3 O  py                62     -0.143035  2 O  py         
    63      0.138990  2 O  pz               118     -0.136393  3 O  pz         

 Vector    8  Occ=2.000000D+00  E=-1.892820D-01
              MO Center=  1.8D-02,  2.2D-02, -3.2D-01, r^2= 1.3D+00
   Bfn.  Coefficient  Atom+Function         Bfn.  Coefficient  Atom+Function  
  ----- ------------  ---------------      ----- ------------  ---------------
     6      0.220952  1 N  px                 9      0.212199  1 N  px         
    61      0.161221  2 O  px                64      0.159535  2 O  px         
   116      0.151850  3 O  px               119      0.150333  3 O  px         
     7     -0.126812  1 N  py                12      0.123847  1 N  px         
    10     -0.121789  1 N  py                62     -0.092530  2 O  py         

 Vector    9  Occ=2.000000D+00  E=-1.717719D-01
              MO Center=  1.6D-02,  2.3D-02, -1.5D-01, r^2= 1.4D+00
   Bfn.  Coefficient  Atom+Function         Bfn.  Coefficient  Atom+Function  
  ----- ------------  ---------------      ----- ------------  ---------------
     8      0.245100  1 N  pz                11      0.222541  1 N  pz         
    14      0.167714  1 N  pz                65      0.128186  2 O  py         
    62      0.126982  2 O  py                63      0.118765  2 O  pz         
   120     -0.119230  3 O  py               117     -0.117476  3 O  py         
    66      0.114310  2 O  pz               118      0.113901  3 O  pz         

 Vector   10  Occ=2.000000D+00  E=-3.572764D-02
              MO Center= -1.2D-02, -3.8D-02, -5.8D-01, r^2= 1.9D+00
   Bfn.  Coefficient  Atom+Function         Bfn.  Coefficient  Atom+Function  
  ----- ------------  ---------------      ----- ------------  ---------------
   116     -0.242440  3 O  px               119     -0.242163  3 O  px         
    61      0.235952  2 O  px                64      0.235734  2 O  px         
   122     -0.173994  3 O  px                67      0.169552  2 O  px         
   117      0.139145  3 O  py               120      0.138986  3 O  py         
    62     -0.135421  2 O  py                65     -0.135296  2 O  py         

 Vector   11  Occ=2.000000D+00  E=-5.363760D-03
              MO Center= -9.5D-03, -3.2D-02, -5.2D-01, r^2= 2.0D+00
   Bfn.  Coefficient  Atom+Function         Bfn.  Coefficient  Atom+Function  
  ----- ------------  ---------------      ----- ------------  ---------------
    66      0.212581  2 O  pz               121     -0.213163  3 O  pz         
    63      0.209276  2 O  pz               118     -0.210258  3 O  pz         
   117      0.163465  3 O  py                62      0.160283  2 O  py         
   120      0.158490  3 O  py                65      0.155138  2 O  py         
   124     -0.154694  3 O  pz                69      0.152559  2 O  pz         

 Vector   12  Occ=2.000000D+00  E= 5.647901D-02
              MO Center= -2.2D-03, -1.4D-02, -3.3D-01, r^2= 2.2D+00
   Bfn.  Coefficient  Atom+Function         Bfn.  Coefficient  Atom+Function  
  ----- ------------  ---------------      ----- ------------  ---------------
     5      1.008546  1 N  s                  4      0.488461  1 N  s          
    60     -0.418344  2 O  s                115     -0.414404  3 O  s          
   118     -0.225624  3 O  pz               121     -0.224160  3 O  pz         
    63     -0.222526  2 O  pz                66     -0.221126  2 O  pz         
    69     -0.214576  2 O  pz               124     -0.214810  3 O  pz         

 Vector   13  Occ=0.000000D+00  E= 1.523036D-01
              MO Center=  5.7D-03,  5.3D-04, -3.2D-01, r^2= 1.9D+00
   Bfn.  Coefficient  Atom+Function         Bfn.  Coefficient  Atom+Function  
  ----- ------------  ---------------      ----- ------------  ---------------
    15      0.459079  1 N  px                12      0.371192  1 N  px         
    70     -0.339542  2 O  px               125     -0.333593  3 O  px         
     9      0.284272  1 N  px                 6      0.268261  1 N  px         
    16     -0.263481  1 N  py                13     -0.213036  1 N  py         
    71      0.194876  2 O  py               126      0.191462  3 O  py         

 Vector   14  Occ=0.000000D+00  E= 1.749221D-01
              MO Center=  1.0D-01,  1.4D-01, -1.4D+00, r^2= 1.1D+01
   Bfn.  Coefficient  Atom+Function         Bfn.  Coefficient  Atom+Function  
  ----- ------------  ---------------      ----- ------------  ---------------
     5      9.339229  1 N  s                 60     -5.408232  2 O  s          
   115     -4.969756  3 O  s                  4      3.969892  1 N  s          
    17     -1.711697  1 N  pz                14     -1.608471  1 N  pz         
    59     -1.433157  2 O  s                 71      1.319451  2 O  py         
   114     -1.295520  3 O  s                126     -1.247458  3 O  py         

 Vector   15  Occ=0.000000D+00  E= 1.832546D-01
              MO Center= -7.1D-02, -1.3D-01, -3.7D-01, r^2= 1.4D+01
   Bfn.  Coefficient  Atom+Function         Bfn.  Coefficient  Atom+Function  
  ----- ------------  ---------------      ----- ------------  ---------------
   115      5.071448  3 O  s                 60     -4.597526  2 O  s          
    16      2.644821  1 N  py                13      1.954404  1 N  py         
    15      1.516015  1 N  px               114      1.253922  3 O  s          
    59     -1.165363  2 O  s                 12      1.120544  1 N  px         
   126      0.963226  3 O  py               123      0.892867  3 O  py         

 Vector   16  Occ=0.000000D+00  E= 1.992065D-01
              MO Center= -2.7D-02,  3.8D-03,  1.7D+00, r^2= 6.6D+00
   Bfn.  Coefficient  Atom+Function         Bfn.  Coefficient  Atom+Function  
  ----- ------------  ---------------      ----- ------------  ---------------
    60      2.328844  2 O  s                 17      2.195644  1 N  pz         
   115      2.180154  3 O  s                  5     -1.677009  1 N  s          
     4     -0.885187  1 N  s                 33     -0.815726  1 N  dyy        
    35     -0.789283  1 N  dzz               30     -0.578367  1 N  dxx        
    59      0.462048  2 O  s                 71     -0.428328  2 O  py         

 Vector   17  Occ=0.000000D+00  E= 2.143517D-01
              MO Center= -1.9D-03,  9.2D-03,  4.2D-01, r^2= 9.2D+00
   Bfn.  Coefficient  Atom+Function         Bfn.  Coefficient  Atom+Function  
  ----- ------------  ---------------      ----- ------------  ---------------
    15      1.644191  1 N  px                16     -0.943661  1 N  py         
    12     -0.835944  1 N  px                13      0.479782  1 N  py         
   125     -0.323989  3 O  px                70     -0.318724  2 O  px         
    51      0.285552  1 N  fxzz              46      0.276973  1 N  fxxx       
    49      0.276945  1 N  fxyy             126      0.185949  3 O  py         

 Vector   18  Occ=0.000000D+00  E= 2.655515D-01
              MO Center=  1.0D-02,  1.2D-02, -1.9D-01, r^2= 1.2D+01
   Bfn.  Coefficient  Atom+Function         Bfn.  Coefficient  Atom+Function  
  ----- ------------  ---------------      ----- ------------  ---------------
    16      1.620407  1 N  py                72      0.972240  2 O  pz         
    15      0.931345  1 N  px               115      0.862268  3 O  s          
   127     -0.841906  3 O  pz               126     -0.808141  3 O  py         
    60     -0.794908  2 O  s                 71     -0.737988  2 O  py         
    13     -0.670299  1 N  py                34     -0.634908  1 N  dyz        

 Vector   19  Occ=0.000000D+00  E= 2.683428D-01
              MO Center=  2.4D-02,  1.5D-02, -8.9D-01, r^2= 1.0D+01
   Bfn.  Coefficient  Atom+Function         Bfn.  Coefficient  Atom+Function  
  ----- ------------  ---------------      ----- ------------  ---------------
     5      3.035086  1 N  s                  4     -2.546042  1 N  s          
    14      1.917401  1 N  pz                60     -1.485132  2 O  s          
   115     -1.351348  3 O  s                 35     -1.240423  1 N  dzz        
    71     -0.821588  2 O  py                68     -0.803410  2 O  py         
   123      0.736652  3 O  py               126      0.715958  3 O  py         

 Vector   20  Occ=0.000000D+00  E= 2.749297D-01
              MO Center=  1.6D-02,  7.1D-03, -6.8D-01, r^2= 1.1D+01
   Bfn.  Coefficient  Atom+Function         Bfn.  Coefficient  Atom+Function  
  ----- ------------  ---------------      ----- ------------  ---------------
    70      1.309612  2 O  px               125     -1.255669  3 O  px         
    71     -0.751634  2 O  py               126      0.720674  3 O  py         
    31     -0.455461  1 N  dxy               30     -0.390010  1 N  dxx        
    33      0.389871  1 N  dyy               87      0.198325  2 O  dxz        
   142     -0.197435  3 O  dxz               50      0.176289  1 N  fxyz       

 Vector   21  Occ=0.000000D+00  E= 2.786373D-01
              MO Center= -1.8D-02, -4.4D-02, -4.1D-01, r^2= 1.1D+01
   Bfn.  Coefficient  Atom+Function         Bfn.  Coefficient  Atom+Function  
  ----- ------------  ---------------      ----- ------------  ---------------
     4      5.928799  1 N  s                 17      3.221836  1 N  pz         
     5     -2.896645  1 N  s                 59     -2.142383  2 O  s          
   114     -2.066141  3 O  s                127     -1.971377  3 O  pz         
    72     -1.959046  2 O  pz                33      1.865705  1 N  dyy        
    14     -1.526245  1 N  pz                31      1.386480  1 N  dxy        

 Vector   22  Occ=0.000000D+00  E= 2.933173D-01
              MO Center= -7.9D-03, -3.1D-02, -5.8D-01, r^2= 1.1D+01
   Bfn.  Coefficient  Atom+Function         Bfn.  Coefficient  Atom+Function  
  ----- ------------  ---------------      ----- ------------  ---------------
    15      2.802139  1 N  px               125     -1.911109  3 O  px         
    70     -1.899292  2 O  px                16     -1.608248  1 N  py         
   126      1.096855  3 O  py                71      1.090073  2 O  py         
    32     -0.388442  1 N  dxz              122      0.325175  3 O  px         
    67      0.309778  2 O  px                12      0.305358  1 N  px         

 Vector   23  Occ=0.000000D+00  E= 3.232831D-01
              MO Center= -1.2D-03, -2.4D-02, -7.5D-01, r^2= 1.2D+01
   Bfn.  Coefficient  Atom+Function         Bfn.  Coefficient  Atom+Function  
  ----- ------------  ---------------      ----- ------------  ---------------
    16      4.225367  1 N  py                15      2.424846  1 N  px         
    71     -2.294010  2 O  py               126     -2.265931  3 O  py         
    13     -1.875539  1 N  py                72     -1.832951  2 O  pz         
   127      1.815799  3 O  pz                60     -1.453744  2 O  s          
   115      1.420630  3 O  s                 59      1.341116  2 O  s          

 Vector   24  Occ=0.000000D+00  E= 3.880870D-01
              MO Center=  1.8D-02, -2.5D-03, -1.1D+00, r^2= 8.7D+00
   Bfn.  Coefficient  Atom+Function         Bfn.  Coefficient  Atom+Function  
  ----- ------------  ---------------      ----- ------------  ---------------
     5     15.130019  1 N  s                 60    -10.967558  2 O  s          
   115    -10.815796  3 O  s                 17     -2.975452  1 N  pz         
     4      2.917219  1 N  s                 14     -1.944459  1 N  pz         
    71      1.821194  2 O  py               126     -1.808834  3 O  py         
    70      1.054146  2 O  px               125     -1.028894  3 O  px         

 Vector   25  Occ=0.000000D+00  E= 4.076500D-01
              MO Center=  8.2D-03,  5.9D-03, -2.9D-01, r^2= 1.0D+01
   Bfn.  Coefficient  Atom+Function         Bfn.  Coefficient  Atom+Function  
  ----- ------------  ---------------      ----- ------------  ---------------
    60      9.713316  2 O  s                115     -9.569313  3 O  s          
    16     -3.618339  1 N  py                13     -2.409748  1 N  py         
    15     -2.076465  1 N  px                12     -1.382354  1 N  px         
    72      1.321344  2 O  pz               127     -1.318515  3 O  pz         
   123     -1.153402  3 O  py               126     -1.117898  3 O  py         

 Vector   26  Occ=0.000000D+00  E= 4.492307D-01
              MO Center= -2.0D-02, -4.2D-02, -2.4D-01, r^2= 3.3D+00
   Bfn.  Coefficient  Atom+Function         Bfn.  Coefficient  Atom+Function  
  ----- ------------  ---------------      ----- ------------  ---------------
     4      7.761176  1 N  s                  5     -4.267263  1 N  s          
   115      3.416982  3 O  s                114     -3.275732  3 O  s          
    59     -3.250084  2 O  s                 60      2.859451  2 O  s          
    14     -2.311177  1 N  pz                68      1.873778  2 O  py         
   123     -1.853445  3 O  py               143     -1.450429  3 O  dyy        

 Vector   27  Occ=0.000000D+00  E= 5.351456D-01
              MO Center= -1.7D-02, -1.2D-02,  6.0D-01, r^2= 5.8D+00
   Bfn.  Coefficient  Atom+Function         Bfn.  Coefficient  Atom+Function  
  ----- ------------  ---------------      ----- ------------  ---------------
    35      3.418009  1 N  dzz               33      3.098264  1 N  dyy        
    30      2.848161  1 N  dxx               14     -2.050297  1 N  pz         
   115     -1.907648  3 O  s                 60     -1.758159  2 O  s          
     5     -1.410180  1 N  s                 59     -1.305914  2 O  s          
    68      1.262688  2 O  py               123     -1.017110  3 O  py         

 Vector   28  Occ=0.000000D+00  E= 5.409517D-01
              MO Center= -5.5D-03, -9.5D-03,  4.4D-03, r^2= 3.6D+00
   Bfn.  Coefficient  Atom+Function         Bfn.  Coefficient  Atom+Function  
  ----- ------------  ---------------      ----- ------------  ---------------
    59      7.522617  2 O  s                 13     -6.803769  1 N  py         
   114     -6.149403  3 O  s                 34      4.848364  1 N  dyz        
    12     -3.911916  1 N  px                68     -3.595821  2 O  py         
   115      3.331364  3 O  s                 60     -3.301359  2 O  s          
   123     -2.862937  3 O  py                32      2.790657  1 N  dxz        

 Vector   29  Occ=0.000000D+00  E= 5.639997D-01
              MO Center= -8.8D-04,  8.7D-03,  3.5D-01, r^2= 4.3D+00
   Bfn.  Coefficient  Atom+Function         Bfn.  Coefficient  Atom+Function  
  ----- ------------  ---------------      ----- ------------  ---------------
    32      2.164356  1 N  dxz               15     -1.481970  1 N  px         
    34     -1.241861  1 N  dyz              122      0.899379  3 O  px         
    67      0.893984  2 O  px                16      0.850556  1 N  py         
    70      0.720707  2 O  px               125      0.724023  3 O  px         
   123     -0.516198  3 O  py                68     -0.513093  2 O  py         

 Vector   30  Occ=0.000000D+00  E= 5.691734D-01
              MO Center=  3.3D-02,  6.1D-02,  1.2D-01, r^2= 4.5D+00
   Bfn.  Coefficient  Atom+Function         Bfn.  Coefficient  Atom+Function  
  ----- ------------  ---------------      ----- ------------  ---------------
     4     14.246258  1 N  s                114     -6.672908  3 O  s          
    59     -5.198713  2 O  s                123     -4.043538  3 O  py         
     5      3.905775  1 N  s                 14     -3.834719  1 N  pz         
    68      3.280914  2 O  py                31      2.850997  1 N  dxy        
    60     -2.439593  2 O  s                122     -2.296018  3 O  px         

 Vector   31  Occ=0.000000D+00  E= 6.230553D-01
              MO Center=  1.5D-02,  1.3D-02, -4.3D-01, r^2= 4.5D+00
   Bfn.  Coefficient  Atom+Function         Bfn.  Coefficient  Atom+Function  
  ----- ------------  ---------------      ----- ------------  ---------------
    12      4.142551  1 N  px                13     -2.377538  1 N  py         
    51     -1.137952  1 N  fxzz              46     -1.108658  1 N  fxxx       
    49     -1.106129  1 N  fxyy              32     -1.049861  1 N  dxz        
    47      0.918046  1 N  fxxy              54      0.652691  1 N  fyzz       
    67     -0.641923  2 O  px                34      0.604697  1 N  dyz        

 Vector   32  Occ=0.000000D+00  E= 6.286594D-01
              MO Center= -1.8D-02, -2.0D-02,  3.5D-01, r^2= 4.6D+00
   Bfn.  Coefficient  Atom+Function         Bfn.  Coefficient  Atom+Function  
  ----- ------------  ---------------      ----- ------------  ---------------
    31      2.575772  1 N  dxy               30      2.204676  1 N  dxx        
    33     -2.204534  1 N  dyy               67     -1.806131  2 O  px         
   122      1.765620  3 O  px                68      1.036626  2 O  py         
   123     -1.013379  3 O  py                86      0.620450  2 O  dxy        
   141      0.620959  3 O  dxy               70     -0.613699  2 O  px         

 Vector   33  Occ=0.000000D+00  E= 6.295331D-01
              MO Center=  1.2D-02,  2.9D-02,  2.4D-01, r^2= 4.7D+00
   Bfn.  Coefficient  Atom+Function         Bfn.  Coefficient  Atom+Function  
  ----- ------------  ---------------      ----- ------------  ---------------
    13      7.846401  1 N  py               114      7.623546  3 O  s          
    59     -7.495272  2 O  s                 34     -6.266063  1 N  dyz        
    12      4.500828  1 N  px                32     -3.598667  1 N  dxz        
   123      3.467621  3 O  py                68      3.316079  2 O  py         
   122      1.961910  3 O  px                67      1.927003  2 O  px         

 Vector   34  Occ=0.000000D+00  E= 6.673086D-01
              MO Center=  1.2D-02,  4.3D-03, -5.7D-01, r^2= 6.4D+00
   Bfn.  Coefficient  Atom+Function         Bfn.  Coefficient  Atom+Function  
  ----- ------------  ---------------      ----- ------------  ---------------
     4     31.060173  1 N  s                 59    -12.108968  2 O  s          
    14    -11.560279  1 N  pz               114    -10.559841  3 O  s          
    68      7.441995  2 O  py               123     -6.717839  3 O  py         
    31      4.756476  1 N  dxy               69     -4.374264  2 O  pz         
    67      4.345360  2 O  px               124     -3.970811  3 O  pz         

 Vector   35  Occ=0.000000D+00  E= 6.823910D-01
              MO Center= -3.1D-03, -1.0D-03,  1.5D-01, r^2= 5.9D+00
   Bfn.  Coefficient  Atom+Function         Bfn.  Coefficient  Atom+Function  
  ----- ------------  ---------------      ----- ------------  ---------------
    31      4.686133  1 N  dxy               14      4.274339  1 N  pz         
    33      4.292734  1 N  dyy                4      3.951911  1 N  s          
    69     -3.662430  2 O  pz                35     -3.498124  1 N  dzz        
   124     -3.506100  3 O  pz                59     -2.891447  2 O  s          
   114     -2.554859  3 O  s                 30      1.555743  1 N  dxx        

 Vector   36  Occ=0.000000D+00  E= 6.987023D-01
              MO Center= -2.5D-02, -5.2D-02, -3.1D-01, r^2= 6.0D+00
   Bfn.  Coefficient  Atom+Function         Bfn.  Coefficient  Atom+Function  
  ----- ------------  ---------------      ----- ------------  ---------------
    13     17.426230  1 N  py                59    -12.380227  2 O  s          
   114     12.420279  3 O  s                 12      9.998656  1 N  px         
   123      7.083511  3 O  py                68      6.945993  2 O  py         
    34     -5.862665  1 N  dyz              124      4.357654  3 O  pz         
    69     -4.246704  2 O  pz                67      4.058522  2 O  px         

 Vector   37  Occ=0.000000D+00  E= 7.677395D-01
              MO Center=  5.8D-02,  7.3D-02, -9.8D-01, r^2= 5.6D+00
   Bfn.  Coefficient  Atom+Function         Bfn.  Coefficient  Atom+Function  
  ----- ------------  ---------------      ----- ------------  ---------------
    67      0.976431  2 O  px               122     -0.969133  3 O  px         
   142      0.855534  3 O  dxz               87     -0.829844  2 O  dxz        
    70     -0.801031  2 O  px               125      0.708849  3 O  px         
    86      0.566436  2 O  dxy               68     -0.560406  2 O  py         
   123      0.556217  3 O  py                85      0.505977  2 O  dxx        

 Vector   38  Occ=0.000000D+00  E= 7.845412D-01
              MO Center= -3.9D-02, -7.5D-02, -2.0D-01, r^2= 5.6D+00
   Bfn.  Coefficient  Atom+Function         Bfn.  Coefficient  Atom+Function  
  ----- ------------  ---------------      ----- ------------  ---------------
    32      2.464499  1 N  dxz               34     -1.413892  1 N  dyz        
    15     -1.225430  1 N  px                12     -1.208267  1 N  px         
   141      1.000361  3 O  dxy               86     -0.977062  2 O  dxy        
   125      0.964290  3 O  px                70      0.906786  2 O  px         
   140      0.866137  3 O  dxx              143     -0.859450  3 O  dyy        

 Vector   39  Occ=0.000000D+00  E= 7.987282D-01
              MO Center=  4.1D-02,  4.8D-02, -7.8D-01, r^2= 4.2D+00
   Bfn.  Coefficient  Atom+Function         Bfn.  Coefficient  Atom+Function  
  ----- ------------  ---------------      ----- ------------  ---------------
     4     15.699498  1 N  s                 59     -6.248262  2 O  s          
   114     -6.035796  3 O  s                 14     -5.281795  1 N  pz         
    68      4.365134  2 O  py               123     -4.281001  3 O  py         
     5     -3.353799  1 N  s                115      2.832631  3 O  s          
    60      2.800886  2 O  s                 67      2.515084  2 O  px         

 Vector   40  Occ=0.000000D+00  E= 8.044717D-01
              MO Center= -8.4D-04, -3.6D-02, -1.2D+00, r^2= 5.5D+00
   Bfn.  Coefficient  Atom+Function         Bfn.  Coefficient  Atom+Function  
  ----- ------------  ---------------      ----- ------------  ---------------
    16      1.616380  1 N  py                49      1.366371  1 N  fxyy       
   145      1.199343  3 O  dzz               72     -1.171234  2 O  pz         
   127      1.159899  3 O  pz                 4     -1.153357  1 N  s          
   126     -1.067263  3 O  py                71     -1.016045  2 O  py         
    52      0.970135  1 N  fyyy              47      0.961830  1 N  fxxy       

 Vector   41  Occ=0.000000D+00  E= 8.162809D-01
              MO Center=  1.0D-03, -2.5D-02, -9.1D-01, r^2= 4.8D+00
   Bfn.  Coefficient  Atom+Function         Bfn.  Coefficient  Atom+Function  
  ----- ------------  ---------------      ----- ------------  ---------------
    32      1.443538  1 N  dxz              122      1.441254  3 O  px         
    67      1.421326  2 O  px                87     -1.356543  2 O  dxz        
   142     -1.357331  3 O  dxz               12     -1.255570  1 N  px         
    34     -0.828621  1 N  dyz              123     -0.827183  3 O  py         
    68     -0.815747  2 O  py                89      0.782874  2 O  dyz        

 Vector   42  Occ=0.000000D+00  E= 8.291620D-01
              MO Center= -1.1D-02, -3.3D-02, -4.5D-01, r^2= 5.6D+00
   Bfn.  Coefficient  Atom+Function         Bfn.  Coefficient  Atom+Function  
  ----- ------------  ---------------      ----- ------------  ---------------
     4     11.990020  1 N  s                 59     -5.161282  2 O  s          
   114     -4.925011  3 O  s                  5     -3.761498  1 N  s          
   115      3.093946  3 O  s                 60      3.051449  2 O  s          
    69     -2.873201  2 O  pz               124     -2.821801  3 O  pz         
    31      2.667420  1 N  dxy               88     -2.094109  2 O  dyy        

 Vector   43  Occ=0.000000D+00  E= 8.678980D-01
              MO Center= -9.9D-03, -3.3D-02, -5.4D-01, r^2= 5.5D+00
   Bfn.  Coefficient  Atom+Function         Bfn.  Coefficient  Atom+Function  
  ----- ------------  ---------------      ----- ------------  ---------------
    59      4.947294  2 O  s                115      4.496418  3 O  s          
    60     -4.314823  2 O  s                114     -4.291778  3 O  s          
    68     -2.872652  2 O  py               123     -2.541445  3 O  py         
    34      2.471540  1 N  dyz               88      2.194678  2 O  dyy        
    89     -2.119087  2 O  dyz              143     -2.089214  3 O  dyy        

 Vector   44  Occ=0.000000D+00  E= 8.879613D-01
              MO Center=  2.9D-02,  2.7D-02, -8.2D-01, r^2= 6.4D+00
   Bfn.  Coefficient  Atom+Function         Bfn.  Coefficient  Atom+Function  
  ----- ------------  ---------------      ----- ------------  ---------------
     5     13.341523  1 N  s                 60    -11.223746  2 O  s          
   115    -10.750529  3 O  s                 14     -4.509775  1 N  pz         
    31      3.167366  1 N  dxy              114     -2.954085  3 O  s          
    59     -2.742165  2 O  s                  4      2.683744  1 N  s          
    33      2.535413  1 N  dyy               17     -2.467116  1 N  pz         

 Vector   45  Occ=0.000000D+00  E= 9.068991D-01
              MO Center=  3.0D-03, -1.0D-02, -5.2D-01, r^2= 4.4D+00
   Bfn.  Coefficient  Atom+Function         Bfn.  Coefficient  Atom+Function  
  ----- ------------  ---------------      ----- ------------  ---------------
    31      1.373672  1 N  dxy               87     -1.243428  2 O  dxz        
   142      1.210001  3 O  dxz               30      1.175754  1 N  dxx        
    33     -1.175697  1 N  dyy               67     -0.905804  2 O  px         
   122      0.859065  3 O  px               144     -0.712593  3 O  dyz        
    89      0.695958  2 O  dyz               86     -0.544696  2 O  dxy        

 Vector   46  Occ=0.000000D+00  E= 9.259701D-01
              MO Center= -9.7D-03, -2.1D-02, -1.5D-01, r^2= 7.0D+00
   Bfn.  Coefficient  Atom+Function         Bfn.  Coefficient  Atom+Function  
  ----- ------------  ---------------      ----- ------------  ---------------
   115     -9.703708  3 O  s                 60      9.490761  2 O  s          
    16     -3.324668  1 N  py                13     -2.284314  1 N  py         
   114     -2.101349  3 O  s                123     -1.966156  3 O  py         
    59      1.928776  2 O  s                 15     -1.907473  1 N  px         
    68     -1.809111  2 O  py                34      1.755817  1 N  dyz        

 Vector   47  Occ=0.000000D+00  E= 1.004561D+00
              MO Center= -8.8D-03, -2.5D-02, -3.2D-01, r^2= 5.1D+00
   Bfn.  Coefficient  Atom+Function         Bfn.  Coefficient  Atom+Function  
  ----- ------------  ---------------      ----- ------------  ---------------
    14     14.359843  1 N  pz                 4    -12.945941  1 N  s          
   114      7.958167  3 O  s                 59      7.626128  2 O  s          
    33     -6.040285  1 N  dyy               35     -5.347423  1 N  dzz        
   123      4.946192  3 O  py                68     -4.792302  2 O  py         
    31     -4.583593  1 N  dxy               30     -3.357877  1 N  dxx        

 Vector   48  Occ=0.000000D+00  E= 1.030599D+00
              MO Center=  5.8D-03,  2.7D-03, -2.5D-01, r^2= 5.2D+00
   Bfn.  Coefficient  Atom+Function         Bfn.  Coefficient  Atom+Function  
  ----- ------------  ---------------      ----- ------------  ---------------
    13     23.366097  1 N  py                12     13.416538  1 N  px         
    59    -12.773296  2 O  s                114     12.340872  3 O  s          
    34    -11.781131  1 N  dyz               32     -6.762475  1 N  dxz        
    68      4.856008  2 O  py               123      4.811614  3 O  py         
    47     -4.392019  1 N  fxxy              52     -4.397189  1 N  fyyy       

 Vector   49  Occ=0.000000D+00  E= 1.051807D+00
              MO Center= -9.6D-03, -2.4D-02, -2.5D-01, r^2= 4.1D+00
   Bfn.  Coefficient  Atom+Function         Bfn.  Coefficient  Atom+Function  
  ----- ------------  ---------------      ----- ------------  ---------------
    12      6.127513  1 N  px               122     -4.476617  3 O  px         
    67     -4.338456  2 O  px                13     -3.516801  1 N  py         
    32     -3.431049  1 N  dxz              123      2.569311  3 O  py         
    68      2.490000  2 O  py                34      1.966902  1 N  dyz        
   141     -1.934509  3 O  dxy               86      1.852728  2 O  dxy        

 Vector   50  Occ=0.000000D+00  E= 1.099106D+00
              MO Center=  8.3D-03,  1.4D-02, -5.2D-03, r^2= 3.9D+00
   Bfn.  Coefficient  Atom+Function         Bfn.  Coefficient  Atom+Function  
  ----- ------------  ---------------      ----- ------------  ---------------
    67      4.592957  2 O  px               122     -4.294587  3 O  px         
    31     -3.455003  1 N  dxy               30     -2.959065  1 N  dxx        
    33      2.957683  1 N  dyy               68     -2.636091  2 O  py         
   123      2.464843  3 O  py                87      2.000503  2 O  dxz        
   142     -1.957695  3 O  dxz               86     -1.365387  2 O  dxy        

 Vector   51  Occ=0.000000D+00  E= 1.150197D+00
              MO Center= -5.1D-04, -2.7D-03, -6.3D-02, r^2= 4.5D+00
   Bfn.  Coefficient  Atom+Function         Bfn.  Coefficient  Atom+Function  
  ----- ------------  ---------------      ----- ------------  ---------------
     4     19.622382  1 N  s                 14     -9.832188  1 N  pz         
    68      8.562449  2 O  py               123     -8.327393  3 O  py         
    59     -5.307956  2 O  s                 33     -5.228739  1 N  dyy        
    31     -5.042594  1 N  dxy              114     -4.976731  3 O  s          
    67      4.861342  2 O  px               122     -4.830606  3 O  px         

 Vector   52  Occ=0.000000D+00  E= 1.184522D+00
              MO Center= -2.2D-04, -1.3D-02, -4.1D-01, r^2= 4.9D+00
   Bfn.  Coefficient  Atom+Function         Bfn.  Coefficient  Atom+Function  
  ----- ------------  ---------------      ----- ------------  ---------------
    13     20.759910  1 N  py                59    -14.909095  2 O  s          
   114     14.690541  3 O  s                 12     11.914231  1 N  px         
    69     -8.606958  2 O  pz               124      8.605172  3 O  pz         
   123      5.357060  3 O  py                68      5.248595  2 O  py         
    34     -4.936429  1 N  dyz               90     -3.995572  2 O  dzz        

 Vector   53  Occ=0.000000D+00  E= 1.307316D+00
              MO Center=  8.7D-03,  1.5D-02, -1.3D-02, r^2= 4.6D+00
   Bfn.  Coefficient  Atom+Function         Bfn.  Coefficient  Atom+Function  
  ----- ------------  ---------------      ----- ------------  ---------------
     4     54.897587  1 N  s                 59    -20.500054  2 O  s          
   114    -19.371939  3 O  s                 68     13.618613  2 O  py         
   123    -13.216356  3 O  py                69    -12.628999  2 O  pz         
   124    -12.245317  3 O  pz                14    -10.439746  1 N  pz         
    31      8.999867  1 N  dxy               67      8.030234  2 O  px         

 Vector   54  Occ=0.000000D+00  E= 1.347822D+00
              MO Center=  1.8D-02,  2.7D-02, -1.9D-01, r^2= 4.2D+00
   Bfn.  Coefficient  Atom+Function         Bfn.  Coefficient  Atom+Function  
  ----- ------------  ---------------      ----- ------------  ---------------
     4     13.845314  1 N  s                 59     -4.366161  2 O  s          
   114     -4.164200  3 O  s                 30     -3.589815  1 N  dxx        
    35     -3.142205  1 N  dzz               33     -2.787648  1 N  dyy        
     5      2.494529  1 N  s                 53     -2.169408  1 N  fyyz       
    29     -2.038717  1 N  dzz                3     -1.772637  1 N  s          

 Vector   55  Occ=0.000000D+00  E= 1.369967D+00
              MO Center=  1.7D-02,  1.6D-02, -4.4D-01, r^2= 4.2D+00
   Bfn.  Coefficient  Atom+Function         Bfn.  Coefficient  Atom+Function  
  ----- ------------  ---------------      ----- ------------  ---------------
    59    -21.032590  2 O  s                 13     20.245968  1 N  py         
   114     19.617011  3 O  s                 68     16.682952  2 O  py         
   123     15.868586  3 O  py                12     11.627647  1 N  px         
    67      9.733559  2 O  px                69     -9.359476  2 O  pz         
   122      8.956833  3 O  px               124      8.894052  3 O  pz         

 Vector   56  Occ=0.000000D+00  E= 1.440791D+00
              MO Center= -6.3D-02, -1.0D-01,  2.2D-01, r^2= 3.6D+00
   Bfn.  Coefficient  Atom+Function         Bfn.  Coefficient  Atom+Function  
  ----- ------------  ---------------      ----- ------------  ---------------
    13     18.989790  1 N  py                59    -11.453585  2 O  s          
    12     10.954365  1 N  px                68     10.318313  2 O  py         
     4      8.470836  1 N  s                114      6.788328  3 O  s          
   123      6.181030  3 O  py                67      6.024055  2 O  px         
    69     -6.019012  2 O  pz                88     -5.322810  2 O  dyy        

 Vector   57  Occ=0.000000D+00  E= 1.446951D+00
              MO Center=  3.4D-02,  6.7D-02,  2.3D-01, r^2= 3.3D+00
   Bfn.  Coefficient  Atom+Function         Bfn.  Coefficient  Atom+Function  
  ----- ------------  ---------------      ----- ------------  ---------------
     4     29.890355  1 N  s                 14    -11.640594  1 N  pz         
   114    -11.430048  3 O  s                123    -10.561121  3 O  py         
   124     -6.597436  3 O  pz                13     -5.966258  1 N  py         
   122     -5.949607  3 O  px                59     -5.469845  2 O  s          
    68      5.048733  2 O  py               143     -5.015304  3 O  dyy        

 Vector   58  Occ=0.000000D+00  E= 1.449513D+00
              MO Center= -3.7D-03,  3.2D-03,  3.2D-01, r^2= 2.5D+00
   Bfn.  Coefficient  Atom+Function         Bfn.  Coefficient  Atom+Function  
  ----- ------------  ---------------      ----- ------------  ---------------
    12      3.494718  1 N  px                51     -2.285735  1 N  fxzz       
    46     -2.210539  1 N  fxxx              49     -2.220597  1 N  fxyy       
    13     -2.005620  1 N  py                52      1.591841  1 N  fyyy       
    54      1.311673  1 N  fyzz              15     -0.858765  1 N  px         
    26     -0.578991  1 N  dxz               16      0.492873  1 N  py         

 Vector   59  Occ=0.000000D+00  E= 1.494671D+00
              MO Center=  9.1D-04, -9.8D-03, -3.9D-01, r^2= 2.1D+00
   Bfn.  Coefficient  Atom+Function         Bfn.  Coefficient  Atom+Function  
  ----- ------------  ---------------      ----- ------------  ---------------
    47      1.799594  1 N  fxxy              46     -1.436207  1 N  fxxx       
    49     -1.424475  1 N  fxyy              12      1.411037  1 N  px         
    51     -1.328682  1 N  fxzz              26      1.227246  1 N  dxz        
    13     -0.809853  1 N  py                54      0.764545  1 N  fyzz       
    28     -0.703652  1 N  dyz              122      0.537940  3 O  px         

 Vector   60  Occ=0.000000D+00  E= 1.530032D+00
              MO Center=  1.8D-03,  2.2D-03, -2.7D-02, r^2= 2.3D+00
   Bfn.  Coefficient  Atom+Function         Bfn.  Coefficient  Atom+Function  
  ----- ------------  ---------------      ----- ------------  ---------------
    50      1.641702  1 N  fxyz              48      1.407841  1 N  fxxz       
    53     -1.405885  1 N  fyyz              67     -0.799021  2 O  px         
    87     -0.795244  2 O  dxz              142      0.774654  3 O  dxz        
   122      0.735950  3 O  px                25      0.559716  1 N  dxy        
    24      0.480096  1 N  dxx               27     -0.479386  1 N  dyy        

 Vector   61  Occ=0.000000D+00  E= 1.606708D+00
              MO Center=  4.8D-03, -5.2D-04, -3.0D-01, r^2= 2.3D+00
   Bfn.  Coefficient  Atom+Function         Bfn.  Coefficient  Atom+Function  
  ----- ------------  ---------------      ----- ------------  ---------------
     4      4.605023  1 N  s                 48     -2.997910  1 N  fxxz       
    53     -2.540656  1 N  fyyz              68      1.939469  2 O  py         
    31     -1.859246  1 N  dxy              123     -1.759947  3 O  py         
    33     -1.471827  1 N  dyy               59     -1.338589  2 O  s          
     5     -1.323393  1 N  s                 55     -1.175185  1 N  fzzz       

 Vector   62  Occ=0.000000D+00  E= 1.666937D+00
              MO Center=  8.0D-04, -8.2D-04, -7.5D-02, r^2= 2.4D+00
   Bfn.  Coefficient  Atom+Function         Bfn.  Coefficient  Atom+Function  
  ----- ------------  ---------------      ----- ------------  ---------------
    51      2.464670  1 N  fxzz              32     -2.183387  1 N  dxz        
    12      2.063415  1 N  px                54     -1.415090  1 N  fyzz       
    67     -1.282503  2 O  px               122     -1.274402  3 O  px         
    34      1.253090  1 N  dyz               13     -1.184274  1 N  py         
    86      0.785969  2 O  dxy              141     -0.765409  3 O  dxy        

 Vector   63  Occ=0.000000D+00  E= 1.741633D+00
              MO Center=  8.8D-03,  9.0D-03, -2.1D-01, r^2= 3.2D+00
   Bfn.  Coefficient  Atom+Function         Bfn.  Coefficient  Atom+Function  
  ----- ------------  ---------------      ----- ------------  ---------------
     4     26.289619  1 N  s                 14     -8.891795  1 N  pz         
    59     -8.002242  2 O  s                114     -8.017625  3 O  s          
   123     -7.349687  3 O  py                68      7.081436  2 O  py         
   122     -4.195598  3 O  px                67      4.082592  2 O  px         
   143     -3.897336  3 O  dyy               88     -3.779552  2 O  dyy        

 Vector   64  Occ=0.000000D+00  E= 1.772132D+00
              MO Center=  1.4D-02,  1.4D-02, -3.5D-01, r^2= 3.4D+00
   Bfn.  Coefficient  Atom+Function         Bfn.  Coefficient  Atom+Function  
  ----- ------------  ---------------      ----- ------------  ---------------
    50      2.457523  1 N  fxyz              48      2.102403  1 N  fxxz       
    53     -2.103457  1 N  fyyz              31     -1.480416  1 N  dxy        
    25     -1.363819  1 N  dxy               30     -1.266935  1 N  dxx        
    33      1.266996  1 N  dyy              141     -1.188473  3 O  dxy        
    86     -1.174027  2 O  dxy               24     -1.167616  1 N  dxx        

 Vector   65  Occ=0.000000D+00  E= 1.773622D+00
              MO Center= -6.1D-03, -1.5D-02, -1.6D-01, r^2= 2.9D+00
   Bfn.  Coefficient  Atom+Function         Bfn.  Coefficient  Atom+Function  
  ----- ------------  ---------------      ----- ------------  ---------------
    68      5.883072  2 O  py               123      5.589134  3 O  py         
   124      3.804946  3 O  pz                59     -3.744673  2 O  s          
    69     -3.623980  2 O  pz                67      3.437915  2 O  px         
    47      3.420725  1 N  fxxy              52      3.391031  1 N  fyyy       
   114      3.163602  3 O  s                122      3.143327  3 O  px         

 Vector   66  Occ=0.000000D+00  E= 1.812036D+00
              MO Center=  1.5D-02,  1.2D-02, -5.1D-01, r^2= 3.3D+00
   Bfn.  Coefficient  Atom+Function         Bfn.  Coefficient  Atom+Function  
  ----- ------------  ---------------      ----- ------------  ---------------
    47      3.328452  1 N  fxxy              12      2.898028  1 N  px         
    13     -1.663325  1 N  py                52     -1.636457  1 N  fyyy       
   142     -1.488406  3 O  dxz               87     -1.461514  2 O  dxz        
    26     -1.412156  1 N  dxz               32     -1.157407  1 N  dxz        
   141     -1.107535  3 O  dxy               86      1.064025  2 O  dxy        

 Vector   67  Occ=0.000000D+00  E= 1.812316D+00
              MO Center=  8.3D-02,  1.4D-01, -1.9D-01, r^2= 3.2D+00
   Bfn.  Coefficient  Atom+Function         Bfn.  Coefficient  Atom+Function  
  ----- ------------  ---------------      ----- ------------  ---------------
     4     19.531032  1 N  s                 50      5.447303  1 N  fxyz       
    69     -5.464528  2 O  pz                 5     -5.342089  1 N  s          
    68      5.162583  2 O  py               124     -5.149315  3 O  pz         
   115      4.820119  3 O  s                123     -4.805228  3 O  py         
    60      4.660687  2 O  s                 90     -3.570567  2 O  dzz        

 Vector   68  Occ=0.000000D+00  E= 1.819815D+00
              MO Center= -6.2D-02, -1.3D-01, -6.6D-01, r^2= 3.8D+00
   Bfn.  Coefficient  Atom+Function         Bfn.  Coefficient  Atom+Function  
  ----- ------------  ---------------      ----- ------------  ---------------
     4      4.561238  1 N  s                 54      3.796172  1 N  fyzz       
    49     -3.151368  1 N  fxyy              13     -2.545134  1 N  py         
    51      2.179963  1 N  fxzz              60      2.121150  2 O  s          
    28     -1.883067  1 N  dyz              145     -1.818862  3 O  dzz        
    88     -1.629707  2 O  dyy              110      1.486208  2 O  fzzz       

 Vector   69  Occ=0.000000D+00  E= 1.987343D+00
              MO Center= -6.5D-02, -1.3D-01, -4.2D-01, r^2= 3.5D+00
   Bfn.  Coefficient  Atom+Function         Bfn.  Coefficient  Atom+Function  
  ----- ------------  ---------------      ----- ------------  ---------------
   122      2.557419  3 O  px                67      1.966586  2 O  px         
    12     -1.702621  1 N  px               123     -1.467802  3 O  py         
   161     -1.453536  3 O  fxzz             156     -1.227413  3 O  fxxx       
   159     -1.227026  3 O  fxyy             106     -1.164468  2 O  fxzz       
    68     -1.128703  2 O  py               162      1.027263  3 O  fyyy       

 Vector   70  Occ=0.000000D+00  E= 1.987715D+00
              MO Center= -1.3D-01, -2.4D-01, -5.4D-01, r^2= 3.7D+00
   Bfn.  Coefficient  Atom+Function         Bfn.  Coefficient  Atom+Function  
  ----- ------------  ---------------      ----- ------------  ---------------
   124      6.591312  3 O  pz                13      6.486947  1 N  py         
    59     -4.141852  2 O  s                 12      3.746310  1 N  px         
    68      3.348502  2 O  py               163     -3.206734  3 O  fyyz       
   123      2.720145  3 O  py                50     -2.647406  1 N  fxyz       
    33     -2.588316  1 N  dyy              145      2.560632  3 O  dzz        

 Vector   71  Occ=0.000000D+00  E= 1.990768D+00
              MO Center=  7.5D-02,  1.1D-01, -6.5D-01, r^2= 3.8D+00
   Bfn.  Coefficient  Atom+Function         Bfn.  Coefficient  Atom+Function  
  ----- ------------  ---------------      ----- ------------  ---------------
    13     11.066692  1 N  py                12      6.325330  1 N  px         
    69     -6.184093  2 O  pz               114      5.714601  3 O  s          
   123      5.647820  3 O  py                68      4.429544  2 O  py         
    59     -3.290656  2 O  s                122      3.223564  3 O  px         
   108      3.070458  2 O  fyyz              10     -2.834325  1 N  py         

 Vector   72  Occ=0.000000D+00  E= 1.993182D+00
              MO Center=  5.3D-02,  7.0D-02, -7.8D-01, r^2= 2.7D+00
   Bfn.  Coefficient  Atom+Function         Bfn.  Coefficient  Atom+Function  
  ----- ------------  ---------------      ----- ------------  ---------------
    67      3.027409  2 O  px               122     -2.470857  3 O  px         
    68     -1.737510  2 O  py               101     -1.428812  2 O  fxxx       
   104     -1.428817  2 O  fxyy             123      1.418164  3 O  py         
   106     -1.396713  2 O  fxzz             159      1.211276  3 O  fxyy       
   156      1.205198  3 O  fxxx             161      1.106448  3 O  fxzz       

 Vector   73  Occ=0.000000D+00  E= 2.031211D+00
              MO Center=  3.6D-02,  4.8D-02, -4.8D-01, r^2= 3.4D+00
   Bfn.  Coefficient  Atom+Function         Bfn.  Coefficient  Atom+Function  
  ----- ------------  ---------------      ----- ------------  ---------------
    14     -8.631357  1 N  pz                 4      8.302952  1 N  s          
    68      5.114356  2 O  py                59     -4.981415  2 O  s          
   123     -4.374158  3 O  py               114     -4.170704  3 O  s          
    53      3.215963  1 N  fyyz              48      3.155499  1 N  fxxz       
    33      3.079214  1 N  dyy               67      2.967723  2 O  px         

 Vector   74  Occ=0.000000D+00  E= 2.091884D+00
              MO Center= -1.5D-05, -2.0D-02, -6.7D-01, r^2= 2.6D+00
   Bfn.  Coefficient  Atom+Function         Bfn.  Coefficient  Atom+Function  
  ----- ------------  ---------------      ----- ------------  ---------------
   105      0.962945  2 O  fxyz             160      0.901874  3 O  fxyz       
   158      0.855734  3 O  fxxz             106      0.848531  2 O  fxzz       
   122     -0.828611  3 O  px               108     -0.805814  2 O  fyyz       
   161     -0.800220  3 O  fxzz              67      0.792243  2 O  px         
   163     -0.791268  3 O  fyyz             103      0.741533  2 O  fxxz       

 Vector   75  Occ=0.000000D+00  E= 2.118568D+00
              MO Center=  1.1D-02,  7.9D-03, -3.9D-01, r^2= 2.6D+00
   Bfn.  Coefficient  Atom+Function         Bfn.  Coefficient  Atom+Function  
  ----- ------------  ---------------      ----- ------------  ---------------
    12      2.821801  1 N  px                67     -2.361748  2 O  px         
   122     -2.299627  3 O  px                47      1.902700  1 N  fxxy       
    13     -1.619528  1 N  py               102     -1.596229  2 O  fxxy       
   157     -1.586223  3 O  fxxy              68      1.355494  2 O  py         
    32     -1.328884  1 N  dxz              123      1.319843  3 O  py         

 Vector   76  Occ=0.000000D+00  E= 2.152682D+00
              MO Center=  2.3D-03, -6.4D-03, -3.6D-01, r^2= 2.9D+00
   Bfn.  Coefficient  Atom+Function         Bfn.  Coefficient  Atom+Function  
  ----- ------------  ---------------      ----- ------------  ---------------
    68      4.035655  2 O  py               123      3.971655  3 O  py         
    34     -3.351840  1 N  dyz               69      2.662218  2 O  pz         
   124     -2.598623  3 O  pz                13      2.474625  1 N  py         
   122      2.323514  3 O  px                67      2.271092  2 O  px         
    59     -2.127229  2 O  s                 49     -1.999035  1 N  fxyy       

 Vector   77  Occ=0.000000D+00  E= 2.204638D+00
              MO Center=  1.1D-01,  1.8D-01, -5.8D-01, r^2= 3.1D+00
   Bfn.  Coefficient  Atom+Function         Bfn.  Coefficient  Atom+Function  
  ----- ------------  ---------------      ----- ------------  ---------------
     4     17.819292  1 N  s                114    -13.249817  3 O  s          
    13    -12.740701  1 N  py               123    -11.737559  3 O  py         
    14     -8.977973  1 N  pz                12     -7.160292  1 N  px         
   122     -6.624471  3 O  px               124     -6.613033  3 O  pz         
   143     -5.216477  3 O  dyy              140     -4.568881  3 O  dxx        

 Vector   78  Occ=0.000000D+00  E= 2.206107D+00
              MO Center=  6.6D-03, -8.7D-03, -6.8D-01, r^2= 2.6D+00
   Bfn.  Coefficient  Atom+Function         Bfn.  Coefficient  Atom+Function  
  ----- ------------  ---------------      ----- ------------  ---------------
    12      2.880369  1 N  px                67     -2.270954  2 O  px         
   122     -2.259340  3 O  px                32     -1.901184  1 N  dxz        
    13     -1.653117  1 N  py               161      1.595509  3 O  fxzz       
   106      1.564848  2 O  fxzz              68      1.303815  2 O  py         
   123      1.296318  3 O  py                47      1.180755  1 N  fxxy       

 Vector   79  Occ=0.000000D+00  E= 2.207994D+00
              MO Center= -8.9D-02, -1.7D-01, -5.9D-01, r^2= 3.1D+00
   Bfn.  Coefficient  Atom+Function         Bfn.  Coefficient  Atom+Function  
  ----- ------------  ---------------      ----- ------------  ---------------
     4     17.305400  1 N  s                 13     14.596021  1 N  py         
    59    -14.264706  2 O  s                 68     12.188765  2 O  py         
    12      8.522181  1 N  px                14     -8.561442  1 N  pz         
    67      7.112486  2 O  px                69     -6.894992  2 O  pz         
    88     -5.490110  2 O  dyy              114      5.064809  3 O  s          

 Vector   80  Occ=0.000000D+00  E= 2.237407D+00
              MO Center=  2.5D-03, -1.4D-02, -6.0D-01, r^2= 2.8D+00
   Bfn.  Coefficient  Atom+Function         Bfn.  Coefficient  Atom+Function  
  ----- ------------  ---------------      ----- ------------  ---------------
    31      2.607679  1 N  dxy               33      2.133384  1 N  dyy        
     4     -2.105578  1 N  s                 69     -2.116075  2 O  pz         
    14      1.933171  1 N  pz               124     -1.899707  3 O  pz         
   123      1.585029  3 O  py                68     -1.420163  2 O  py         
   103      1.246534  2 O  fxxz             158      1.214244  3 O  fxxz       

 Vector   81  Occ=0.000000D+00  E= 2.306345D+00
              MO Center= -3.5D-03, -1.1D-02, -1.8D-01, r^2= 2.8D+00
   Bfn.  Coefficient  Atom+Function         Bfn.  Coefficient  Atom+Function  
  ----- ------------  ---------------      ----- ------------  ---------------
    67      3.038371  2 O  px               122     -2.945269  3 O  px         
    31     -2.130859  1 N  dxy               30     -1.823973  1 N  dxx        
    33      1.823784  1 N  dyy               68     -1.743877  2 O  py         
    50      1.692774  1 N  fxyz             123      1.690456  3 O  py         
    87      1.589563  2 O  dxz              142     -1.595834  3 O  dxz        

 Vector   82  Occ=0.000000D+00  E= 2.313859D+00
              MO Center=  1.7D-01,  2.8D-01, -4.2D-01, r^2= 3.7D+00
   Bfn.  Coefficient  Atom+Function         Bfn.  Coefficient  Atom+Function  
  ----- ------------  ---------------      ----- ------------  ---------------
     4     11.591970  1 N  s                 60     -7.829067  2 O  s          
    13     -6.397887  1 N  py               123     -5.975386  3 O  py         
    59     -5.912147  2 O  s                115      4.891240  3 O  s          
   143     -4.420366  3 O  dyy               49      4.011189  1 N  fxyy       
    12     -3.628588  1 N  px               140     -3.598429  3 O  dxx        

 Vector   83  Occ=0.000000D+00  E= 2.323805D+00
              MO Center= -2.0D-01, -3.8D-01, -7.6D-01, r^2= 3.6D+00
   Bfn.  Coefficient  Atom+Function         Bfn.  Coefficient  Atom+Function  
  ----- ------------  ---------------      ----- ------------  ---------------
     4     38.869417  1 N  s                114    -17.503587  3 O  s          
    59    -15.221783  2 O  s                123    -11.111506  3 O  py         
    68     10.153545  2 O  py                14     -8.289090  1 N  pz         
   124     -8.183103  3 O  pz               115     -8.092150  3 O  s          
    69     -7.425316  2 O  pz                 5      7.278130  1 N  s          

 Vector   84  Occ=0.000000D+00  E= 2.329417D+00
              MO Center=  4.4D-02,  6.1D-02, -5.4D-01, r^2= 3.0D+00
   Bfn.  Coefficient  Atom+Function         Bfn.  Coefficient  Atom+Function  
  ----- ------------  ---------------      ----- ------------  ---------------
    59      9.409125  2 O  s                 68     -8.974984  2 O  py         
     4     -7.797144  1 N  s                 69      5.547926  2 O  pz         
    67     -5.245089  2 O  px               123     -4.890457  3 O  py         
    86      3.412646  2 O  dxy               47     -3.216207  1 N  fxxy       
    52     -3.212558  1 N  fyyy              60      3.002709  2 O  s          

 Vector   85  Occ=0.000000D+00  E= 2.520568D+00
              MO Center= -1.1D-02, -3.4D-02, -4.9D-01, r^2= 2.9D+00
   Bfn.  Coefficient  Atom+Function         Bfn.  Coefficient  Atom+Function  
  ----- ------------  ---------------      ----- ------------  ---------------
    50      2.140405  1 N  fxyz              48      1.828274  1 N  fxxz       
    53     -1.830599  1 N  fyyz             106     -1.394786  2 O  fxzz       
   161      1.381575  3 O  fxzz             160      1.148683  3 O  fxyz       
   163     -0.991503  3 O  fyyz             105      0.962693  2 O  fxyz       
   158      0.907164  3 O  fxxz             103      0.896601  2 O  fxxz       

 Vector   86  Occ=0.000000D+00  E= 2.523511D+00
              MO Center= -4.0D-03, -1.9D-02, -4.0D-01, r^2= 2.9D+00
   Bfn.  Coefficient  Atom+Function         Bfn.  Coefficient  Atom+Function  
  ----- ------------  ---------------      ----- ------------  ---------------
    59      9.679547  2 O  s                 13     -8.772702  1 N  py         
   114     -8.200392  3 O  s                 68     -6.926676  2 O  py         
   123     -5.934913  3 O  py                12     -5.043704  1 N  px         
    67     -4.041906  2 O  px                69      3.920307  2 O  pz         
   124     -3.627494  3 O  pz               122     -3.344789  3 O  px         

 Vector   87  Occ=0.000000D+00  E= 2.541489D+00
              MO Center=  8.4D-03, -2.5D-03, -5.8D-01, r^2= 2.9D+00
   Bfn.  Coefficient  Atom+Function         Bfn.  Coefficient  Atom+Function  
  ----- ------------  ---------------      ----- ------------  ---------------
    12      2.147334  1 N  px               122     -1.933263  3 O  px         
    67     -1.900927  2 O  px               105      1.694768  2 O  fxyz       
   160     -1.654719  3 O  fxyz             103      1.489925  2 O  fxxz       
   108     -1.468386  2 O  fyyz             163      1.396087  3 O  fyyz       
   157     -1.388629  3 O  fxxy             158     -1.379814  3 O  fxxz       

 Vector   88  Occ=0.000000D+00  E= 2.545984D+00
              MO Center=  8.1D-03,  2.3D-03, -4.0D-01, r^2= 2.8D+00
   Bfn.  Coefficient  Atom+Function         Bfn.  Coefficient  Atom+Function  
  ----- ------------  ---------------      ----- ------------  ---------------
     4     19.007005  1 N  s                 14     -8.417807  1 N  pz         
   123     -7.115700  3 O  py                68      6.500760  2 O  py         
   114     -6.258199  3 O  s                 59     -5.519384  2 O  s          
   122     -4.092333  3 O  px                67      3.713763  2 O  px         
   143     -2.720347  3 O  dyy              141     -2.523089  3 O  dxy        

 Vector   89  Occ=0.000000D+00  E= 2.604610D+00
              MO Center=  1.9D-02,  1.6D-02, -6.1D-01, r^2= 3.1D+00
   Bfn.  Coefficient  Atom+Function         Bfn.  Coefficient  Atom+Function  
  ----- ------------  ---------------      ----- ------------  ---------------
   102      2.652618  2 O  fxxy             157     -2.561988  3 O  fxxy       
    67      2.190484  2 O  px               122     -2.082147  3 O  px         
    68     -1.257560  2 O  py               123      1.195411  3 O  py         
    50     -1.106594  1 N  fxyz              86     -1.057764  2 O  dxy        
   141     -1.037540  3 O  dxy               48     -0.948144  1 N  fxxz       

 Vector   90  Occ=0.000000D+00  E= 2.607061D+00
              MO Center=  7.4D-03,  1.1D-02, -6.7D-02, r^2= 3.3D+00
   Bfn.  Coefficient  Atom+Function         Bfn.  Coefficient  Atom+Function  
  ----- ------------  ---------------      ----- ------------  ---------------
     4     41.488590  1 N  s                114    -12.112989  3 O  s          
    59    -11.920006  2 O  s                123     -5.610875  3 O  py         
    24     -5.141977  1 N  dxx               68      5.154347  2 O  py         
   124     -5.146213  3 O  pz                14     -4.992907  1 N  pz         
    29     -4.925736  1 N  dzz               69     -4.826774  2 O  pz         

 Vector   91  Occ=0.000000D+00  E= 2.693373D+00
              MO Center= -3.7D-02, -7.6D-02, -4.0D-01, r^2= 3.0D+00
   Bfn.  Coefficient  Atom+Function         Bfn.  Coefficient  Atom+Function  
  ----- ------------  ---------------      ----- ------------  ---------------
   124      6.781485  3 O  pz                69      5.817785  2 O  pz         
    33     -5.725166  1 N  dyy              114      4.986365  3 O  s          
    31     -4.670887  1 N  dxy                4     -3.728847  1 N  s          
   145      3.444689  3 O  dzz               30     -2.987093  1 N  dxx        
    90      2.861759  2 O  dzz               29     -2.454853  1 N  dzz        

 Vector   92  Occ=0.000000D+00  E= 2.709532D+00
              MO Center=  6.0D-02,  9.5D-02, -3.0D-01, r^2= 2.5D+00
   Bfn.  Coefficient  Atom+Function         Bfn.  Coefficient  Atom+Function  
  ----- ------------  ---------------      ----- ------------  ---------------
    59     11.390386  2 O  s                 13     -9.669040  1 N  py         
   114     -9.536959  3 O  s                 69      5.658839  2 O  pz         
    12     -5.552910  1 N  px                68     -4.495816  2 O  py         
    49     -4.154277  1 N  fxyy             123     -3.570918  3 O  py         
   124     -3.462563  3 O  pz                34      3.327146  1 N  dyz        

 Vector   93  Occ=0.000000D+00  E= 2.806290D+00
              MO Center=  7.2D-03,  2.0D-04, -4.2D-01, r^2= 3.4D+00
   Bfn.  Coefficient  Atom+Function         Bfn.  Coefficient  Atom+Function  
  ----- ------------  ---------------      ----- ------------  ---------------
    13     21.186883  1 N  py                68     13.872078  2 O  py         
   123     13.529626  3 O  py                59    -12.516596  2 O  s          
[...]
    91     -5.078407  2 O  fxxx              94     -5.078401  2 O  fxyy       
    96     -5.093211  2 O  fxzz             146      5.074407  3 O  fxxx       
   149      5.074392  3 O  fxyy             151      5.089223  3 O  fxzz       

 Vector  158  Occ=0.000000D+00  E= 1.350098D+01
              MO Center=  6.5D-03, -6.9D-03, -6.2D-01, r^2= 2.6D+00
   Bfn.  Coefficient  Atom+Function         Bfn.  Coefficient  Atom+Function  
  ----- ------------  ---------------      ----- ------------  ---------------
    64     10.072722  2 O  px               119     10.080784  3 O  px         
    65     -5.781091  2 O  py               120     -5.785710  3 O  py         
    91     -5.061663  2 O  fxxx              94     -5.061446  2 O  fxyy       
   146     -5.065539  3 O  fxxx             149     -5.065664  3 O  fxyy       
    96     -5.034678  2 O  fxzz             151     -5.038957  3 O  fxzz       

 Vector  159  Occ=0.000000D+00  E= 1.370178D+01
              MO Center=  6.7D-03, -6.1D-03, -6.0D-01, r^2= 2.6D+00
   Bfn.  Coefficient  Atom+Function         Bfn.  Coefficient  Atom+Function  
  ----- ------------  ---------------      ----- ------------  ---------------
    66     10.486636  2 O  pz               121    -10.445704  3 O  pz         
    93     -5.190559  2 O  fxxz              98     -5.212325  2 O  fyyz       
   100     -5.181269  2 O  fzzz             148      5.171221  3 O  fxxz       
   153      5.191407  3 O  fyyz             155      5.160448  3 O  fzzz       
    65      4.825778  2 O  py               120      4.738899  3 O  py         

 Vector  160  Occ=0.000000D+00  E= 1.417132D+01
              MO Center=  7.3D-03, -6.4D-03, -6.5D-01, r^2= 2.3D+00
   Bfn.  Coefficient  Atom+Function         Bfn.  Coefficient  Atom+Function  
  ----- ------------  ---------------      ----- ------------  ---------------
    66      8.799506  2 O  pz               121      8.745752  3 O  pz         
    65      6.454543  2 O  py               120     -6.382466  3 O  py         
    14     -5.562913  1 N  pz                69      4.228596  2 O  pz         
   100     -4.199263  2 O  fzzz             124      4.199482  3 O  pz         
    93     -4.171171  2 O  fxxz             155     -4.169000  3 O  fzzz       

 Vector  161  Occ=0.000000D+00  E= 1.588055D+01
              MO Center=  5.1D-03, -5.7D-03, -4.9D-01, r^2= 2.7D+00
   Bfn.  Coefficient  Atom+Function         Bfn.  Coefficient  Atom+Function  
  ----- ------------  ---------------      ----- ------------  ---------------
     4     26.813813  1 N  s                 14    -12.625877  1 N  pz         
   123     -9.167271  3 O  py                68      9.108270  2 O  py         
     2     -8.512924  1 N  s                 59     -7.498753  2 O  s          
   114     -7.498784  3 O  s                124     -7.172802  3 O  pz         
    69     -7.095423  2 O  pz               121     -6.338024  3 O  pz         

 Vector  162  Occ=0.000000D+00  E= 1.671003D+01
              MO Center=  6.8D-03, -6.2D-03, -6.1D-01, r^2= 2.1D+00
   Bfn.  Coefficient  Atom+Function         Bfn.  Coefficient  Atom+Function  
  ----- ------------  ---------------      ----- ------------  ---------------
    13     12.501247  1 N  py                59    -12.003371  2 O  s          
   114     12.003361  3 O  s                120      7.875393  3 O  py         
    65      7.835860  2 O  py               123      7.624232  3 O  py         
    68      7.581994  2 O  py                12      7.174017  1 N  px         
    57     -6.616324  2 O  s                112      6.616511  3 O  s          

 Vector  163  Occ=0.000000D+00  E= 1.714752D+01
              MO Center=  6.3D-03, -5.9D-03, -5.7D-01, r^2= 1.6D+00
   Bfn.  Coefficient  Atom+Function         Bfn.  Coefficient  Atom+Function  
  ----- ------------  ---------------      ----- ------------  ---------------
     4      7.806491  1 N  s                 59      6.769892  2 O  s          
   114      6.770092  3 O  s                 14     -4.509089  1 N  pz         
    57      4.271465  2 O  s                112      4.271262  3 O  s          
    79     -3.787629  2 O  dxx              134     -3.793097  3 O  dxx        
    84     -3.710578  2 O  dzz              139     -3.707014  3 O  dzz        

 Vector  164  Occ=0.000000D+00  E= 1.733547D+01
              MO Center=  5.6D-03, -5.9D-03, -5.3D-01, r^2= 1.6D+00
   Bfn.  Coefficient  Atom+Function         Bfn.  Coefficient  Atom+Function  
  ----- ------------  ---------------      ----- ------------  ---------------
    13     12.311960  1 N  py               123      7.341402  3 O  py         
    68      7.299517  2 O  py               120      7.125522  3 O  py         
    12      7.065388  1 N  px                65      7.088662  2 O  py         
   124      5.050167  3 O  pz                69     -4.987894  2 O  pz         
    10      4.904478  1 N  py                88     -4.553833  2 O  dyy        

 Vector  165  Occ=0.000000D+00  E= 1.986903D+01
              MO Center=  1.7D-03, -4.7D-03, -2.6D-01, r^2= 1.8D+00
   Bfn.  Coefficient  Atom+Function         Bfn.  Coefficient  Atom+Function  
  ----- ------------  ---------------      ----- ------------  ---------------
     2     18.865837  1 N  s                  4     16.313389  1 N  s          
     1      9.363302  1 N  s                 11     -8.636724  1 N  pz         
   120     -8.218275  3 O  py                65      8.173800  2 O  py         
    25      6.813084  1 N  dxy               59     -6.200049  2 O  s          
   114     -6.200551  3 O  s                121     -5.329152  3 O  pz         


 center of mass
 --------------
 x =   0.00756078 y =  -0.01014439 z =  -0.78972294

 moments of inertia (a.u.)
 ------------------
         115.619157567196         -57.535340619779          -0.019455254232
         -57.535340619779          48.379098261863          -0.487364259338
          -0.019455254232          -0.487364259338         133.282616244168

     Multipole analysis of the density
     ---------------------------------

     L   x y z        total         alpha         beta         nuclear
     -   - - -        -----         -----         ----         -------
     0   0 0 0     -1.000000    -12.000000    -12.000000     23.000000

     1   1 0 0     -0.009699     -0.091823     -0.091823      0.173946
     1   0 1 0      0.010626      0.121980      0.121980     -0.233334
     1   0 0 1      0.932218      9.549566      9.549566    -18.166914

     2   2 0 0    -15.382425    -15.949817    -15.949817     16.517208
     2   1 1 0     -2.481721    -15.628391    -15.628391     28.775060
     2   1 0 1      0.037579      0.082600      0.082600     -0.127621
     2   0 2 0    -18.282635    -34.215812    -34.215812     50.148989
     2   0 1 1     -0.039231     -0.233641     -0.233641      0.428051
     2   0 0 2    -17.503602    -19.765755    -19.765755     22.027907

 Line search: 
     step= 1.00 grad=-3.1D-07 hess= 4.1D-08 energy=   -205.052215 mode=accept  
 new step= 1.00                   predicted energy=   -205.052215

          --------
          Step   3
          --------


                         Geometry "geometry" -> "geometry"
                         ---------------------------------

 Output coordinates in angstroms (scale by  1.889725989 to convert to a.u.)

  No.       Tag          Charge          X              Y              Z
 ---- ---------------- ---------- -------------- -------------- --------------
    1 N                    7.0000    -0.00273617    -0.00346072     0.04425357
    2 O                    8.0000     0.54456431     0.93062828    -0.61624410
    3 O                    8.0000    -0.53066413    -0.94303456    -0.62416747

      Atomic Mass 
      ----------- 

      N                 14.003070
      O                 15.994910


 Effective nuclear repulsion energy (a.u.)      62.4115362897

            Nuclear Dipole moment (a.u.) 
            ----------------------------
        X                 Y               Z
 ---------------- ---------------- ----------------
     0.1739458207    -0.2333344538   -18.1669139877


                                 NWChem DFT Module
                                 -----------------




 Summary of "ao basis" -> "ao basis" (cartesian)
 ------------------------------------------------------------------------------
       Tag                 Description            Shells   Functions and Types
 ---------------- ------------------------------  ------  ---------------------
 N                        aug-cc-pVTZ               14       55   5s4p3d2f
 O                        aug-cc-pVTZ               14       55   5s4p3d2f



  The DFT is already converged 

         Total DFT energy =   -205.052214596297


            General Information
            -------------------
          SCF calculation type: DFT
          Wavefunction type:  closed shell.
          No. of atoms     :     3
          No. of electrons :    24
           Alpha electrons :    12
            Beta electrons :    12
          Charge           :    -1
          Spin multiplicity:     1
          Use of symmetry is: off; symmetry adaption is: off
          Maximum number of iterations: 200
          AO basis - number of functions:   165
                     number of shells:    42
          Convergence on energy requested:  1.00D-06
          Convergence on density requested:  1.00D-05
          Convergence on gradient requested:  5.00D-04

              XC Information
              --------------
          PerdewBurkeErnzerhof Exchange Functional  1.000          
            Perdew 1991 LDA Correlation Functional  1.000 local    
           PerdewBurkeErnz. Correlation Functional  1.000 non-local

             Grid Information
             ----------------
          Grid used for XC integration:  medium    
          Radial quadrature: Mura-Knowles        
          Angular quadrature: Lebedev. 
          Tag              B.-S. Rad. Rad. Pts. Rad. Cut. Ang. Pts.
          ---              ---------- --------- --------- ---------
          N                   0.65       49           9.0       434
          O                   0.60       49          10.0       434
          Grid pruning is: on 
          Number of quadrature shells:   147
          Spatial weights used:  Erf1

          Convergence Information
          -----------------------
          Convergence aids based upon iterative change in 
          total energy or number of iterations. 
          Levelshifting, if invoked, occurs when the 
          HOMO/LUMO gap drops below (HL_TOL):  1.00D-02
          DIIS, if invoked, will attempt to extrapolate 
          using up to (NFOCK): 10 stored Fock matrices.

                    Damping(40%)  Levelshifting(0.0)       DIIS
                  --------------- ------------------- ---------------
          dE  on:    start            ASAP                start   
          dE off:  200 iters        200 iters           200 iters 


      Screening Tolerance Information
      -------------------------------
          Density screening/tol_rho:  1.00D-10
          AO Gaussian exp screening on grid/accAOfunc:  14
          CD Gaussian exp screening on grid/accCDfunc:  20
          XC Gaussian exp screening on grid/accXCfunc:  20
          Schwarz screening/accCoul:  1.00D-08



                            NWChem DFT Gradient Module
                            --------------------------



  charge          =  -1.00
  wavefunction    = closed shell



                         DFT ENERGY GRADIENTS

    atom               coordinates                        gradient
                 x          y          z           x          y          z
   1 N      -0.005171  -0.006540   0.083627    0.000015   0.000025  -0.000021
   2 O       1.029077   1.758632  -1.164532    0.000004   0.000007   0.000018
   3 O      -1.002810  -1.782077  -1.179505   -0.000018  -0.000032   0.000003

                 ----------------------------------------
                 |  Time  |  1-e(secs)   |  2-e(secs)   |
                 ----------------------------------------
                 |  CPU   |       0.00   |       1.43   |
                 ----------------------------------------
                 |  WALL  |       0.00   |       1.43   |
                 ----------------------------------------

  Step       Energy      Delta E   Gmax     Grms     Xrms     Xmax   Walltime
  ---- ---------------- -------- -------- -------- -------- -------- --------
@    3    -205.05221460 -2.7D-07  0.00003  0.00002  0.00028  0.00056     33.9
                                     ok       ok       ok       ok  


      ----------------------
      Optimization converged
      ----------------------


  Step       Energy      Delta E   Gmax     Grms     Xrms     Xmax   Walltime
  ---- ---------------- -------- -------- -------- -------- -------- --------
@    3    -205.05221460 -2.7D-07  0.00003  0.00002  0.00028  0.00056     33.9
                                     ok       ok       ok       ok  



                         Geometry "geometry" -> "geometry"
                         ---------------------------------

 Output coordinates in angstroms (scale by  1.889725989 to convert to a.u.)

  No.       Tag          Charge          X              Y              Z
 ---- ---------------- ---------- -------------- -------------- --------------
    1 N                    7.0000    -0.00273617    -0.00346072     0.04425357
    2 O                    8.0000     0.54456431     0.93062828    -0.61624410
    3 O                    8.0000    -0.53066413    -0.94303456    -0.62416747

      Atomic Mass 
      ----------- 

      N                 14.003070
      O                 15.994910


 Effective nuclear repulsion energy (a.u.)      62.4115362897

            Nuclear Dipole moment (a.u.) 
            ----------------------------
        X                 Y               Z
 ---------------- ---------------- ----------------
     0.1739458207    -0.2333344538   -18.1669139877

 ==============================================================================
                                internuclear distances
 ------------------------------------------------------------------------------
       center one      |      center two      | atomic units |  angstroms
 ------------------------------------------------------------------------------
    2 O                |   1 N                |     2.39654  |     1.26819
    3 O                |   1 N                |     2.39652  |     1.26819
 ------------------------------------------------------------------------------
                         number of included internuclear distances:          2
 ==============================================================================



 ==============================================================================
                                 internuclear angles
 ------------------------------------------------------------------------------
        center 1       |       center 2       |       center 3       |  degrees
 ------------------------------------------------------------------------------
    2 O                |   1 N                |   3 O                |   116.80
 ------------------------------------------------------------------------------
                            number of included internuclear angles:          1
 ==============================================================================




 Task  times  cpu:       31.6s     wall:       33.7s


                                NWChem Input Module
                                -------------------


 Summary of allocated global arrays
-----------------------------------
  No active global arrays


MA_summarize_allocated_blocks: starting scan ...
MA_summarize_allocated_blocks: scan completed: 0 heap blocks, 0 stack blocks
MA usage statistics:

	allocation statistics:
					      heap	     stack
					      ----	     -----
	current number of blocks	         0	         0
	maximum number of blocks	        24	        53
	current total bytes		         0	         0
	maximum total bytes		 268763424	  42470344
	maximum total K-bytes		    268764	     42471
	maximum total M-bytes		       269	        43


                                     CITATION
                                     --------
                Please cite the following reference when publishing
                           results obtained with NWChem:

          E. Apra, E. J. Bylaska, W. A. de Jong, N. Govind, K. Kowalski,
       T. P. Straatsma, M. Valiev, H. J. J. van Dam, Y. Alexeev, J. Anchell,
       V. Anisimov, F. W. Aquino, R. Atta-Fynn, J. Autschbach, N. P. Bauman,
     J. C. Becca, D. E. Bernholdt, K. Bhaskaran-Nair, S. Bogatko, P. Borowski,
         J. Boschen, J. Brabec, A. Bruner, E. Cauet, Y. Chen, G. N. Chuev,
      C. J. Cramer, J. Daily, M. J. O. Deegan, T. H. Dunning Jr., M. Dupuis,
   K. G. Dyall, G. I. Fann, S. A. Fischer, A. Fonari, H. Fruchtl, L. Gagliardi,
      J. Garza, N. Gawande, S. Ghosh, K. Glaesemann, A. W. Gotz, J. Hammond,
       V. Helms, E. D. Hermes, K. Hirao, S. Hirata, M. Jacquelin, L. Jensen,
   B. G. Johnson, H. Jonsson, R. A. Kendall, M. Klemm, R. Kobayashi, V. Konkov,
      S. Krishnamoorthy, M. Krishnan, Z. Lin, R. D. Lins, R. J. Littlefield,
      A. J. Logsdail, K. Lopata, W. Ma, A. V. Marenich, J. Martin del Campo,
   D. Mejia-Rodriguez, J. E. Moore, J. M. Mullin, T. Nakajima, D. R. Nascimento,
    J. A. Nichols, P. J. Nichols, J. Nieplocha, A. Otero-de-la-Roza, B. Palmer,
    A. Panyala, T. Pirojsirikul, B. Peng, R. Peverati, J. Pittner, L. Pollack,
   R. M. Richard, P. Sadayappan, G. C. Schatz, W. A. Shelton, D. W. Silverstein,
   D. M. A. Smith, T. A. Soares, D. Song, M. Swart, H. L. Taylor, G. S. Thomas,
            V. Tipparaju, D. G. Truhlar, K. Tsemekhman, T. Van Voorhis,
      A. Vazquez-Mayagoitia, P. Verma, O. Villa, A. Vishnu, K. D. Vogiatzis,
        D. Wang, J. H. Weare, M. J. Williamson, T. L. Windus, K. Wolinski,
        A. T. Wong, Q. Wu, C. Yang, Q. Yu, M. Zacharias, Z. Zhang, Y. Zhao,
                                and R. J. Harrison
                        "NWChem: Past, present, and future
                         J. Chem. Phys. 152, 184102 (2020)
                               doi:10.1063/5.0004997

                                      AUTHORS
                                      -------
  E. Apra, E. J. Bylaska, N. Govind, K. Kowalski, M. Valiev, D. Mejia-Rodriguez,
       A. Kunitsa, N. P. Bauman, A. Panyala, W. A. de Jong, T. P. Straatsma,
   H. J. J. van Dam, D. Wang, T. L. Windus, J. Hammond, J. Autschbach, A. Woods,
    K. Bhaskaran-Nair, J. Brabec, K. Lopata, S. A. Fischer, S. Krishnamoorthy,
     M. Jacquelin, W. Ma, M. Klemm, O. Villa, Y. Chen, V. Anisimov, F. Aquino,
     S. Hirata, M. T. Hackler, E. Hermes, L. Jensen, J. E. Moore, J. C. Becca,
      V. Konjkov, T. Risthaus, M. Malagoli, A. Marenich, A. Otero-de-la-Roza,
        J. Mullin, P. Nichols, R. Peverati, J. Pittner, Y. Zhao, P.-D. Fan,
        A. Fonari, M. J. Williamson, R. J. Harrison, J. R. Rehr, M. Dupuis,
     D. Silverstein, D. M. A. Smith, J. Nieplocha, V. Tipparaju, M. Krishnan,
     B. E. Van Kuiken, A. Vazquez-Mayagoitia, M. Swart, Q. Wu, T. Van Voorhis,
     A. A. Auer, M. Nooijen, L. D. Crosby, E. Brown, G. Cisneros, G. I. Fann,
   H. Fruchtl, J. Garza, K. Hirao, R. A. Kendall, J. A. Nichols, K. Tsemekhman,
    K. Wolinski, J. Anchell, D. E. Bernholdt, P. Borowski, T. Clark, D. Clerc,
   H. Dachsel, M. J. O. Deegan, K. Dyall, D. Elwood, E. Glendening, M. Gutowski,
   A. C. Hess, J. Jaffe, B. G. Johnson, J. Ju, R. Kobayashi, R. Kutteh, Z. Lin,
   R. Littlefield, X. Long, B. Meng, T. Nakajima, S. Niu, L. Pollack, M. Rosing,
   K. Glaesemann, G. Sandrone, M. Stave, H. Taylor, G. Thomas, J. H. van Lenthe,
                               A. T. Wong, Z. Zhang.

 Total times  cpu:       31.8s     wall:       34.0s
