 argument  1 = m2e/mol.nwi
                                         
                                         


             Northwest Computational Chemistry Package (NWChem) 7.2.2
             --------------------------------------------------------


                    Environmental Molecular Sciences Laboratory
                       Pacific Northwest National Laboratory
                                Richland, WA 99352

                              Copyright (c) 1994-2022
                       Pacific Northwest National Laboratory
                            Battelle Memorial Institute

             NWChem is an open-source computational chemistry package
                        distributed under the terms of the
                      Educational Community License (ECL) 2.0
             A copy of the license is included with this distribution
                              in the LICENSE.TXT file

                                  ACKNOWLEDGMENT
                                  --------------

            This software and its documentation were developed at the
            EMSL at Pacific Northwest National Laboratory, a multiprogram
            national laboratory, operated for the U.S. Department of Energy
            by Battelle under Contract Number DE-AC05-76RL01830. Support
            for this work was provided by the Department of Energy Office
            of Biological and Environmental Research, Office of Basic
            Energy Sciences, and the Office of Advanced Scientific Computing.


           Job information
           ---------------

    hostname        = r310.ib.bridges2.psc.edu
    program         = nwchem
    date            = Tue Oct  1 14:09:25 2024

    compiled        = Mon_Mar_18_17:03:37_2024
    source          = /ocean/projects/pscstaff/mmadrid/nwchem-7.2.2
    nwchem branch   = 7.2.2
    nwchem revision = 74936fb9
    ga revision     = 5.8.0
    use scalapack   = F
    input           = m2e/mol.nwi
    prefix          = dft.
    data base       = .//dft.db
    status          = startup
    nproc           =       15
    time left       =     -1s



           Memory information
           ------------------

    heap     =   67108862 doubles =    512.0 Mbytes
    stack    =   67108859 doubles =    512.0 Mbytes
    global   =  134217728 doubles =   1024.0 Mbytes (distinct from heap & stack)
    total    =  268435449 doubles =   2048.0 Mbytes
    verify   = yes
    hardfail = no 


           Directory information
           ---------------------

  0 permanent = ./
  0 scratch   = /jet/home/hmt47/nwchem_scratch/




                                NWChem Input Module
                                -------------------


  library name resolved from: environment
  library file name is: </opt/packages/nwchem/nwchem7.2.2/share/nwchem/libraries/>
  


 Summary of "ao basis" -> "" (cartesian)
 ------------------------------------------------------------------------------
       Tag                 Description            Shells   Functions and Types
 ---------------- ------------------------------  ------  ---------------------
 *                        aug-cc-pVTZ                 on all atoms 


  pbe96 is a nonlocal functional; adding pw91lda local functional. 

 Scaling coordinates for geometry "geometry" by  1.889725989
 (inverse scale =  0.529177249)



                             Geometry "geometry" -> ""
                             -------------------------

 Output coordinates in angstroms (scale by  1.889725989 to convert to a.u.)

  No.       Tag          Charge          X              Y              Z
 ---- ---------------- ---------- -------------- -------------- --------------
    1 C                    6.0000     0.00000000     0.00000000     0.00000000
    2 O                    8.0000    -0.01989000     0.00828100     1.24582900
    3 O                    8.0000     0.59368400     1.00294700    -0.62475800
    4 O                    8.0000    -0.56786100    -1.01344700    -0.62999500

      Atomic Mass 
      ----------- 

      C                 12.000000
      O                 15.994910


 Effective nuclear repulsion energy (a.u.)     104.0807434398

            Nuclear Dipole moment (a.u.) 
            ----------------------------
        X                 Y               Z
 ---------------- ---------------- ----------------
     0.0896939543    -0.0335464157    -0.1349113178


            XYZ format geometry
            -------------------
     4
 geometry
 C                     0.00000000     0.00000000     0.00000000
 O                    -0.01989000     0.00828100     1.24582900
 O                     0.59368400     1.00294700    -0.62475800
 O                    -0.56786100    -1.01344700    -0.62999500

 ==============================================================================
                                internuclear distances
 ------------------------------------------------------------------------------
       center one      |      center two      | atomic units |  angstroms
 ------------------------------------------------------------------------------
    2 O                |   1 C                |     2.35463  |     1.24602
    3 O                |   1 C                |     2.49893  |     1.32238
    4 O                |   1 C                |     2.49732  |     1.32153
 ------------------------------------------------------------------------------
                         number of included internuclear distances:          3
 ==============================================================================



 ==============================================================================
                                 internuclear angles
 ------------------------------------------------------------------------------
        center 1       |       center 2       |       center 3       |  degrees
 ------------------------------------------------------------------------------
    2 O                |   1 C                |   3 O                |   118.33
    2 O                |   1 C                |   4 O                |   118.35
    3 O                |   1 C                |   4 O                |   123.32
 ------------------------------------------------------------------------------
                            number of included internuclear angles:          3
 ==============================================================================





                           NWChem Geometry Optimization
                           ----------------------------


 maximum gradient threshold         (gmax) =   0.000450
 rms gradient threshold             (grms) =   0.000300
 maximum cartesian step threshold   (xmax) =   0.001800
 rms cartesian step threshold       (xrms) =   0.001200
 fixed trust radius                (trust) =   0.300000
 maximum step size to saddle      (sadstp) =   0.100000
 energy precision                  (eprec) =   5.0D-06
 maximum number of steps          (nptopt) =   40
 initial hessian option           (inhess) =    0
 line search option               (linopt) =    1
 hessian update option            (modupd) =    1
 saddle point option              (modsad) =    0
 initial eigen-mode to follow     (moddir) =    0
 initial variable to follow       (vardir) =    0
 follow first negative mode     (firstneg) =    T
 apply conjugacy                    (opcg) =    F
 source of zmatrix                         =           


          -------------------
          Energy Minimization
          -------------------


 Using diagonal initial Hessian 

          --------
          Step   0
          --------


                         Geometry "geometry" -> "geometry"
                         ---------------------------------

 Output coordinates in angstroms (scale by  1.889725989 to convert to a.u.)

  No.       Tag          Charge          X              Y              Z
 ---- ---------------- ---------- -------------- -------------- --------------
    1 C                    6.0000     0.00000000     0.00000000     0.00000000
    2 O                    8.0000    -0.01989000     0.00828100     1.24582900
    3 O                    8.0000     0.59368400     1.00294700    -0.62475800
    4 O                    8.0000    -0.56786100    -1.01344700    -0.62999500

      Atomic Mass 
      ----------- 

      C                 12.000000
      O                 15.994910


 Effective nuclear repulsion energy (a.u.)     104.0807434398

            Nuclear Dipole moment (a.u.) 
            ----------------------------
        X                 Y               Z
 ---------------- ---------------- ----------------
     0.0896939543    -0.0335464157    -0.1349113178


                                 NWChem DFT Module
                                 -----------------


                      Basis "ao basis" -> "ao basis" (cartesian)
                      -----
  C (Carbon)
  ----------
            Exponent  Coefficients 
       -------------- ---------------------------------------------------------
  1 S  8.23600000E+03  0.000531
  1 S  1.23500000E+03  0.004108
  1 S  2.80800000E+02  0.021087
  1 S  7.92700000E+01  0.081853
  1 S  2.55900000E+01  0.234817
  1 S  8.99700000E+00  0.434401
  1 S  3.31900000E+00  0.346129
  1 S  3.64300000E-01 -0.008983

  2 S  8.23600000E+03 -0.000113
  2 S  1.23500000E+03 -0.000878
  2 S  2.80800000E+02 -0.004540
  2 S  7.92700000E+01 -0.018133
  2 S  2.55900000E+01 -0.055760
  2 S  8.99700000E+00 -0.126895
  2 S  3.31900000E+00 -0.170352
  2 S  3.64300000E-01  0.598684

  3 S  9.05900000E-01  1.000000

  4 S  1.28500000E-01  1.000000

  5 S  4.40200000E-02  1.000000

  6 P  1.87100000E+01  0.014031
  6 P  4.13300000E+00  0.086866
  6 P  1.20000000E+00  0.290216

  7 P  3.82700000E-01  1.000000

  8 P  1.20900000E-01  1.000000

  9 P  3.56900000E-02  1.000000

 10 D  1.09700000E+00  1.000000

 11 D  3.18000000E-01  1.000000

 12 D  1.00000000E-01  1.000000

 13 F  7.61000000E-01  1.000000

 14 F  2.68000000E-01  1.000000

  O (Oxygen)
  ----------
            Exponent  Coefficients 
       -------------- ---------------------------------------------------------
  1 S  1.53300000E+04  0.000508
  1 S  2.29900000E+03  0.003929
  1 S  5.22400000E+02  0.020243
  1 S  1.47300000E+02  0.079181
  1 S  4.75500000E+01  0.230687
  1 S  1.67600000E+01  0.433118
  1 S  6.20700000E+00  0.350260
  1 S  6.88200000E-01 -0.008154

  2 S  1.53300000E+04 -0.000115
  2 S  2.29900000E+03 -0.000895
  2 S  5.22400000E+02 -0.004636
  2 S  1.47300000E+02 -0.018724
  2 S  4.75500000E+01 -0.058463
  2 S  1.67600000E+01 -0.136463
  2 S  6.20700000E+00 -0.175740
  2 S  6.88200000E-01  0.603418

  3 S  1.75200000E+00  1.000000

  4 S  2.38400000E-01  1.000000

  5 S  7.37600000E-02  1.000000

  6 P  3.44600000E+01  0.015928
  6 P  7.74900000E+00  0.099740
  6 P  2.28000000E+00  0.310492

  7 P  7.15600000E-01  1.000000

  8 P  2.14000000E-01  1.000000

  9 P  5.97400000E-02  1.000000

 10 D  2.31400000E+00  1.000000

 11 D  6.45000000E-01  1.000000

 12 D  2.14000000E-01  1.000000

 13 F  1.42800000E+00  1.000000

 14 F  5.00000000E-01  1.000000



 Summary of "ao basis" -> "ao basis" (cartesian)
 ------------------------------------------------------------------------------
       Tag                 Description            Shells   Functions and Types
 ---------------- ------------------------------  ------  ---------------------
 C                        aug-cc-pVTZ               14       55   5s4p3d2f
 O                        aug-cc-pVTZ               14       55   5s4p3d2f




 Summary of "ao basis" -> "ao basis" (cartesian)
 ------------------------------------------------------------------------------
       Tag                 Description            Shells   Functions and Types
 ---------------- ------------------------------  ------  ---------------------
 C                        aug-cc-pVTZ               14       55   5s4p3d2f
 O                        aug-cc-pVTZ               14       55   5s4p3d2f


  Caching 1-el integrals 

            General Information
            -------------------
          SCF calculation type: DFT
          Wavefunction type:  closed shell.
          No. of atoms     :     4
          No. of electrons :    32
           Alpha electrons :    16
            Beta electrons :    16
          Charge           :    -2
          Spin multiplicity:     1
          Use of symmetry is: off; symmetry adaption is: off
          Maximum number of iterations: 100
          AO basis - number of functions:   220
                     number of shells:    56
          Convergence on energy requested:  1.00D-06
          Convergence on density requested:  1.00D-05
          Convergence on gradient requested:  5.00D-04

              XC Information
              --------------
          PerdewBurkeErnzerhof Exchange Functional  1.000          
            Perdew 1991 LDA Correlation Functional  1.000 local    
           PerdewBurkeErnz. Correlation Functional  1.000 non-local

             Grid Information
             ----------------
          Grid used for XC integration:  medium    
          Radial quadrature: Mura-Knowles        
          Angular quadrature: Lebedev. 
          Tag              B.-S. Rad. Rad. Pts. Rad. Cut. Ang. Pts.
          ---              ---------- --------- --------- ---------
          C                   0.70       49          10.0       434
          O                   0.60       49          10.0       434
          Grid pruning is: on 
          Number of quadrature shells:   196
          Spatial weights used:  Erf1

          Convergence Information
          -----------------------
          Convergence aids based upon iterative change in 
          total energy or number of iterations. 
          Levelshifting, if invoked, occurs when the 
          HOMO/LUMO gap drops below (HL_TOL):  1.00D-02
          DIIS, if invoked, will attempt to extrapolate 
          using up to (NFOCK): 10 stored Fock matrices.

                    Damping(40%)  Levelshifting(0.0)       DIIS
                  --------------- ------------------- ---------------
          dE  on:    start            0.00D+00            start   
          dE off:  100 iters          0.00D+00          100 iters 


      Screening Tolerance Information
      -------------------------------
          Density screening/tol_rho:  1.00D-10
          AO Gaussian exp screening on grid/accAOfunc:  14
          CD Gaussian exp screening on grid/accCDfunc:  20
          XC Gaussian exp screening on grid/accXCfunc:  20
          Schwarz screening/accCoul:  1.00D-08


 Forcing the number of linearly dependent vectors to be  0

      Superposition of Atomic Density Guess
      -------------------------------------

 Sum of atomic energies:        -262.01444809
   Time after variat. SCF:      0.5
   Time prior to 1st pass:      0.5

 Grid_pts file          = /jet/home/hmt47/nwchem_scratch//dft.gridpts.00
 Record size in doubles =  12289        No. of grid_pts per rec  =   3070
 Max. records in memory =      4        Max. recs in file   =  67550051

 Grid integrated density:      29.999999865112
 Requested integration accuracy:   0.10E-05

           Memory utilization after 1st SCF pass: 
           Heap Space remaining (MW):       33.50            33500966
          Stack Space remaining (MW):       67.11            67107668

   convergence    iter        energy       DeltaE   RMS-Dens  Diis-err    time
 ---------------- ----- ----------------- --------- --------- ---------  ------
 d=40,ls=0.0,diis     1   -264.0422353647 -3.68D+02  8.01D-03  3.04D+01     0.7
 Grid integrated density:      31.199999648655
 Requested integration accuracy:   0.10E-05
 d=40,ls=0.0,diis     2   -263.7602200300  2.82D-01  3.09D+00  5.53D+00     1.7
 Grid integrated density:      31.680002670513
 Requested integration accuracy:   0.10E-05
 d=40,ls=0.0,diis     3   -260.1805985855  3.58D+00  1.85D+00  1.12D+01     2.6
 Grid integrated density:      31.872000779096
 Requested integration accuracy:   0.10E-05
 d=40,ls=0.0,diis     4   -263.0829463771 -2.90D+00  7.42D-01  1.00D+00     3.6
 Grid integrated density:      31.948799950633
 Requested integration accuracy:   0.10E-05
 d=40,ls=0.0,diis     5   -263.4328628536 -3.50D-01  2.97D-01  3.86D-02     4.5
 Grid integrated density:      31.979519654033
 Requested integration accuracy:   0.10E-05
  Resetting Diis
 d=40,ls=0.0,diis     6   -263.4805773040 -4.77D-02  1.19D-01  9.14D-02     5.5
 Grid integrated density:      31.991807722463
 Requested integration accuracy:   0.10E-05
 d=40,ls=0.0,diis     7   -263.4988130442 -1.82D-02  2.92D+00  9.85D-02     6.6
 Grid integrated density:      31.996722405158
 Requested integration accuracy:   0.10E-05
 d=40,ls=0.0,diis     8   -263.2135158966  2.85D-01  1.80D+00  1.46D+00     7.7
 Grid integrated density:      31.998688724191
 Requested integration accuracy:   0.10E-05
 d=40,ls=0.0,diis     9   -263.4795582460 -2.66D-01  7.19D-01  1.32D-01     8.8
 Grid integrated density:      31.999475252240
 Requested integration accuracy:   0.10E-05
 d=40,ls=0.0,diis    10   -263.5153114182 -3.58D-02  2.88D-01  2.50D-03     9.8
 Grid integrated density:      31.999789853717
 Requested integration accuracy:   0.10E-05
 d=40,ls=0.0,diis    11   -263.5215617587 -6.25D-03  1.15D-01  6.35D-04    10.8
 Grid integrated density:      31.999915694757
 Requested integration accuracy:   0.10E-05
 d=40,ls=0.0,diis    12   -263.5237635012 -2.20D-03  4.60D-02  7.38D-04    11.8
 Grid integrated density:      31.999966032581
 Requested integration accuracy:   0.10E-05
 d=40,ls=0.0,diis    13   -263.5246834637 -9.20D-04  1.84D-02  3.32D-04    13.0
 d=40,ls=0.0,diis    14   -263.5250582622 -3.75D-04  7.38D-03  1.53D-04    14.0
 d=40,ls=0.0,diis    15   -263.5252158981 -1.58D-04  2.96D-03  3.67D-05    15.0
 d=40,ls=0.0,diis    16   -263.5252779605 -6.21D-05  1.18D-03  6.35D-06    16.1
 d=40,ls=0.0,diis    17   -263.5253021373 -2.42D-05  4.72D-04  1.94D-06    17.2
 d=40,ls=0.0,diis    18   -263.5253118174 -9.68D-06  1.89D-04  3.92D-07    18.2
 d=40,ls=0.0,diis    19   -263.5253156665 -3.85D-06  7.56D-05  6.73D-08    19.3
 d=40,ls=0.0,diis    20   -263.5253171998 -1.53D-06  3.02D-05  1.09D-08    20.3
 d=40,ls=0.0,diis    21   -263.5253178120 -6.12D-07  1.21D-05  1.70D-09    21.3
 d=40,ls=0.0,diis    22   -263.5253180566 -2.45D-07  4.84D-06  2.73D-10    22.4


         Total DFT energy =     -263.525318056582
      One electron energy =     -583.596424703783
           Coulomb energy =      247.281941829562
    Exchange-Corr. energy =      -31.291578622154
 Nuclear repulsion energy =      104.080743439794

 Numeric. integr. density =       31.999999578634

     Total iterative time =     21.9s



                       DFT Final Molecular Orbital Analysis
                       ------------------------------------

 Vector    1  Occ=2.000000D+00  E=-1.828316D+01
              MO Center= -2.0D-02,  8.3D-03,  1.2D+00, r^2= 1.5D-02
   Bfn.  Coefficient  Atom+Function         Bfn.  Coefficient  Atom+Function  
  ----- ------------  ---------------      ----- ------------  ---------------
    56      0.979625  2 O  s                 58      0.064180  2 O  s          
    59     -0.037973  2 O  s                 14     -0.027252  1 C  pz         
    53      0.026535  1 C  fyyz              50      0.025022  1 C  fxyz       

 Vector    2  Occ=2.000000D+00  E=-1.828159D+01
              MO Center= -5.7D-01, -1.0D+00, -6.3D-01, r^2= 1.7D-02
   Bfn.  Coefficient  Atom+Function         Bfn.  Coefficient  Atom+Function  
  ----- ------------  ---------------      ----- ------------  ---------------
   166      0.978238  4 O  s                168      0.063232  4 O  s          
   169     -0.056956  4 O  s          

 Vector    3  Occ=2.000000D+00  E=-1.828153D+01
              MO Center=  5.9D-01,  1.0D+00, -6.2D-01, r^2= 1.7D-02
   Bfn.  Coefficient  Atom+Function         Bfn.  Coefficient  Atom+Function  
  ----- ------------  ---------------      ----- ------------  ---------------
   111      0.978218  3 O  s                113      0.063237  3 O  s          
   114     -0.057770  3 O  s          

 Vector    4  Occ=2.000000D+00  E=-9.568771D+00
              MO Center= -5.4D-07,  1.4D-07,  1.5D-05, r^2= 2.8D-02
   Bfn.  Coefficient  Atom+Function         Bfn.  Coefficient  Atom+Function  
  ----- ------------  ---------------      ----- ------------  ---------------
     1      1.010417  1 C  s                  2      0.080432  1 C  s          
    59     -0.075876  2 O  s                  3      0.063293  1 C  s          
    69      0.036197  2 O  pz                 4      0.031681  1 C  s          
    29      0.031383  1 C  dzz              169     -0.029962  4 O  s          
   114     -0.029478  3 O  s          

 Vector    5  Occ=2.000000D+00  E=-5.402627D-01
              MO Center= -3.9D-03, -3.1D-05,  2.6D-01, r^2= 1.2D+00
   Bfn.  Coefficient  Atom+Function         Bfn.  Coefficient  Atom+Function  
  ----- ------------  ---------------      ----- ------------  ---------------
    57      0.292530  2 O  s                  2      0.281445  1 C  s          
   112      0.187446  3 O  s                167      0.188266  4 O  s          
    59      0.129315  2 O  s                  4      0.088795  1 C  s          
   114      0.088683  3 O  s                169      0.088928  4 O  s          
     3      0.082312  1 C  s                 58      0.082201  2 O  s          

 Vector    6  Occ=2.000000D+00  E=-4.215467D-01
              MO Center= -1.2D-02, -1.7D-02,  1.7D-01, r^2= 1.5D+00
   Bfn.  Coefficient  Atom+Function         Bfn.  Coefficient  Atom+Function  
  ----- ------------  ---------------      ----- ------------  ---------------
    57      0.337505  2 O  s                 59      0.264393  2 O  s          
   167     -0.243893  4 O  s                112     -0.232824  3 O  s          
   169     -0.187071  4 O  s                114     -0.178595  3 O  s          
     8      0.151927  1 C  pz                58      0.092718  2 O  s          
    11      0.072582  1 C  pz               168     -0.068111  4 O  s          

 Vector    7  Occ=2.000000D+00  E=-4.130090D-01
              MO Center=  2.1D-02,  1.6D-02, -4.7D-01, r^2= 1.5D+00
   Bfn.  Coefficient  Atom+Function         Bfn.  Coefficient  Atom+Function  
  ----- ------------  ---------------      ----- ------------  ---------------
   112      0.341857  3 O  s                167     -0.333456  4 O  s          
   114      0.258921  3 O  s                169     -0.252515  4 O  s          
     7      0.126697  1 C  py               113      0.095256  3 O  s          
   168     -0.092897  4 O  s                  6      0.073036  1 C  px         
    10      0.066288  1 C  py               115      0.038903  3 O  s          

 Vector    8  Occ=2.000000D+00  E=-1.394388D-02
              MO Center= -1.3D-03, -9.3D-04,  1.4D-01, r^2= 2.6D+00
   Bfn.  Coefficient  Atom+Function         Bfn.  Coefficient  Atom+Function  
  ----- ------------  ---------------      ----- ------------  ---------------
     2      0.295325  1 C  s                  4      0.245487  1 C  s          
    59     -0.228882  2 O  s                 57     -0.191986  2 O  s          
   114     -0.191797  3 O  s                169     -0.192052  4 O  s          
   112     -0.170757  3 O  s                167     -0.171012  4 O  s          
    63     -0.166202  2 O  pz                66     -0.156873  2 O  pz         

 Vector    9  Occ=2.000000D+00  E= 4.617084D-02
              MO Center=  5.6D-03, -8.5D-03, -3.8D-01, r^2= 2.3D+00
   Bfn.  Coefficient  Atom+Function         Bfn.  Coefficient  Atom+Function  
  ----- ------------  ---------------      ----- ------------  ---------------
     7      0.180260  1 C  py               114     -0.140599  3 O  s          
   169      0.141255  4 O  s                167      0.137977  4 O  s          
   112     -0.137150  3 O  s                173     -0.135802  4 O  pz         
   118      0.135115  3 O  pz               121      0.128243  3 O  pz         
   176     -0.128836  4 O  pz                10      0.125021  1 C  py         

 Vector   10  Occ=2.000000D+00  E= 4.785131D-02
              MO Center= -2.1D-03, -1.3D-04,  1.3D-01, r^2= 1.7D+00
   Bfn.  Coefficient  Atom+Function         Bfn.  Coefficient  Atom+Function  
  ----- ------------  ---------------      ----- ------------  ---------------
     6      0.201507  1 C  px                 9      0.163993  1 C  px         
    61      0.155111  2 O  px                64      0.150990  2 O  px         
   171      0.119624  4 O  px               116      0.118404  3 O  px         
     7     -0.116083  1 C  py               174      0.116515  4 O  px         
   119      0.115316  3 O  px                67      0.103725  2 O  px         

 Vector   11  Occ=2.000000D+00  E= 4.836984D-02
              MO Center= -3.0D-03,  6.8D-03,  4.2D-01, r^2= 2.3D+00
   Bfn.  Coefficient  Atom+Function         Bfn.  Coefficient  Atom+Function  
  ----- ------------  ---------------      ----- ------------  ---------------
    63     -0.229217  2 O  pz                 8      0.211159  1 C  pz         
    66     -0.211952  2 O  pz                69     -0.151166  2 O  pz         
    57     -0.148134  2 O  s                 59     -0.143414  2 O  s          
    11      0.136156  1 C  pz               117      0.127128  3 O  py         
   172     -0.126467  4 O  py               120      0.120819  3 O  py         

 Vector   12  Occ=2.000000D+00  E= 1.832529D-01
              MO Center= -3.9D-03,  1.3D-03,  3.7D-01, r^2= 2.7D+00
   Bfn.  Coefficient  Atom+Function         Bfn.  Coefficient  Atom+Function  
  ----- ------------  ---------------      ----- ------------  ---------------
   115      0.306047  3 O  s                170     -0.305744  4 O  s          
    62     -0.219205  2 O  py                65     -0.215659  2 O  py         
    68     -0.185591  2 O  py                16     -0.156446  1 C  py         
   117     -0.153524  3 O  py               172     -0.154152  4 O  py         
   120     -0.148506  3 O  py               175     -0.149105  4 O  py         

 Vector   13  Occ=2.000000D+00  E= 1.919427D-01
              MO Center=  1.4D-02, -5.6D-03, -5.1D-01, r^2= 2.8D+00
   Bfn.  Coefficient  Atom+Function         Bfn.  Coefficient  Atom+Function  
  ----- ------------  ---------------      ----- ------------  ---------------
    60      0.445617  2 O  s                118     -0.234772  3 O  pz         
   173     -0.234570  4 O  pz               121     -0.230074  3 O  pz         
   176     -0.229877  4 O  pz               115     -0.225813  3 O  s          
   170     -0.226844  4 O  s                 17     -0.211380  1 C  pz         
   124     -0.192534  3 O  pz               179     -0.192055  4 O  pz         

 Vector   14  Occ=2.000000D+00  E= 1.964443D-01
              MO Center= -2.0D-02, -1.5D-02,  4.3D-01, r^2= 2.3D+00
   Bfn.  Coefficient  Atom+Function         Bfn.  Coefficient  Atom+Function  
  ----- ------------  ---------------      ----- ------------  ---------------
    61      0.250424  2 O  px                64      0.248928  2 O  px         
    67      0.199028  2 O  px                70      0.178679  2 O  px         
   171     -0.150377  4 O  px               174     -0.148815  4 O  px         
    62     -0.144299  2 O  py                65     -0.143437  2 O  py         
   116     -0.143694  3 O  px               119     -0.142221  3 O  px         

 Vector   15  Occ=2.000000D+00  E= 1.998821D-01
              MO Center=  2.3D-02,  1.7D-02, -6.0D-01, r^2= 2.3D+00
   Bfn.  Coefficient  Atom+Function         Bfn.  Coefficient  Atom+Function  
  ----- ------------  ---------------      ----- ------------  ---------------
   116      0.230201  3 O  px               119      0.227890  3 O  px         
   171     -0.226745  4 O  px               174     -0.224429  4 O  px         
   122      0.182974  3 O  px               177     -0.179692  4 O  px         
   125      0.159024  3 O  px               180     -0.156974  4 O  px         
   117     -0.134177  3 O  py               120     -0.132771  3 O  py         

 Vector   16  Occ=2.000000D+00  E= 2.539646D-01
              MO Center=  3.3D-03,  2.3D-04, -4.1D-02, r^2= 2.6D+00
   Bfn.  Coefficient  Atom+Function         Bfn.  Coefficient  Atom+Function  
  ----- ------------  ---------------      ----- ------------  ---------------
   127      0.227867  3 O  pz               182     -0.227512  4 O  pz         
   118      0.211795  3 O  pz               121      0.210622  3 O  pz         
   173     -0.211000  4 O  pz               176     -0.209847  4 O  pz         
    62     -0.201031  2 O  py                65     -0.201689  2 O  py         
    71     -0.188506  2 O  py               124      0.173832  3 O  pz         

 Vector   17  Occ=0.000000D+00  E= 2.735911D-01
              MO Center= -7.8D-03, -5.5D-03,  4.8D-01, r^2= 1.6D+01
   Bfn.  Coefficient  Atom+Function         Bfn.  Coefficient  Atom+Function  
  ----- ------------  ---------------      ----- ------------  ---------------
     4      9.259013  1 C  s                 60     -7.674145  2 O  s          
     5      7.134391  1 C  s                115     -6.709263  3 O  s          
   170     -6.729603  4 O  s                 35      2.947198  1 C  dzz        
    33      2.778478  1 C  dyy               30      2.069167  1 C  dxx        
    72      1.809813  2 O  pz               181     -1.330481  4 O  py         

 Vector   18  Occ=0.000000D+00  E= 2.821909D-01
              MO Center= -3.0D-05, -3.2D-03, -2.2D-01, r^2= 1.9D+01
   Bfn.  Coefficient  Atom+Function         Bfn.  Coefficient  Atom+Function  
  ----- ------------  ---------------      ----- ------------  ---------------
    60     -3.410244  2 O  s                 17      3.159406  1 C  pz         
   170      2.808861  4 O  s                115      2.785341  3 O  s          
    14      1.733657  1 C  pz                 4     -0.894438  1 C  s          
     5     -0.728684  1 C  s                 53     -0.620523  1 C  fyyz       
   126     -0.604229  3 O  py               181      0.599306  4 O  py         

 Vector   19  Occ=0.000000D+00  E= 2.823043D-01
              MO Center=  6.3D-03,  8.6D-03, -2.1D-01, r^2= 1.9D+01
   Bfn.  Coefficient  Atom+Function         Bfn.  Coefficient  Atom+Function  
  ----- ------------  ---------------      ----- ------------  ---------------
   115      3.521218  3 O  s                170     -3.482073  4 O  s          
    16     -2.813318  1 C  py                15     -1.620814  1 C  px         
    13     -1.445396  1 C  py                12     -0.832724  1 C  px         
    71      0.764981  2 O  py                54      0.600826  1 C  fyzz       
    47      0.525782  1 C  fxxy              52      0.525992  1 C  fyyy       

 Vector   20  Occ=0.000000D+00  E= 2.906056D-01
              MO Center= -8.3D-03,  4.6D-03, -2.1D-02, r^2= 1.6D+01
   Bfn.  Coefficient  Atom+Function         Bfn.  Coefficient  Atom+Function  
  ----- ------------  ---------------      ----- ------------  ---------------
    15      2.413785  1 C  px                16     -1.390601  1 C  py         
    70     -0.781112  2 O  px               180     -0.740177  4 O  px         
   125     -0.734726  3 O  px                71      0.449988  2 O  py         
   126      0.428994  3 O  py               181      0.420713  4 O  py         
   177      0.202207  4 O  px               122      0.196679  3 O  px         

 Vector   21  Occ=0.000000D+00  E= 3.701084D-01
              MO Center=  1.3D-02, -1.3D-02, -3.1D-01, r^2= 1.5D+01
   Bfn.  Coefficient  Atom+Function         Bfn.  Coefficient  Atom+Function  
  ----- ------------  ---------------      ----- ------------  ---------------
     4     10.320536  1 C  s                 60     -6.920294  2 O  s          
    35      6.243646  1 C  dzz              115     -6.245596  3 O  s          
   170     -6.261206  4 O  s                 33      5.722913  1 C  dyy        
    30      5.144593  1 C  dxx               72      2.807262  2 O  pz         
   181     -2.291308  4 O  py                 5     -2.273130  1 C  s          

 Vector   22  Occ=0.000000D+00  E= 3.746996D-01
              MO Center= -8.0D-03,  4.2D-03,  5.9D-01, r^2= 1.4D+01
   Bfn.  Coefficient  Atom+Function         Bfn.  Coefficient  Atom+Function  
  ----- ------------  ---------------      ----- ------------  ---------------
    72      2.758538  2 O  pz                14      2.104842  1 C  pz         
    60     -2.078496  2 O  s                  4      1.777486  1 C  s          
    33      1.662525  1 C  dyy               69      1.636544  2 O  pz         
    31      1.273927  1 C  dxy               59     -1.280187  2 O  s          
    17     -1.174619  1 C  pz                11      1.073716  1 C  pz         

 Vector   23  Occ=0.000000D+00  E= 3.752904D-01
              MO Center=  7.9D-03,  2.1D-03, -1.9D-01, r^2= 1.5D+01
   Bfn.  Coefficient  Atom+Function         Bfn.  Coefficient  Atom+Function  
  ----- ------------  ---------------      ----- ------------  ---------------
    34      2.559300  1 C  dyz               13      1.596391  1 C  py         
   169      1.519342  4 O  s                114     -1.508837  3 O  s          
    32      1.474352  1 C  dxz              124     -1.304693  3 O  pz         
   179      1.302730  4 O  pz                68     -1.294305  2 O  py         
    10      1.278345  1 C  py               127     -1.246777  3 O  pz         

 Vector   24  Occ=0.000000D+00  E= 3.994700D-01
              MO Center= -5.0D-02, -3.9D-02,  1.1D+00, r^2= 1.2D+01
   Bfn.  Coefficient  Atom+Function         Bfn.  Coefficient  Atom+Function  
  ----- ------------  ---------------      ----- ------------  ---------------
    70      2.062010  2 O  px                32     -1.619804  1 C  dxz        
    71     -1.187100  2 O  py                34      0.930316  1 C  dyz        
   180     -0.904726  4 O  px               125     -0.814092  3 O  px         
    87     -0.605394  2 O  dxz              181      0.525029  4 O  py         
   126      0.467090  3 O  py                26     -0.436069  1 C  dxz        

 Vector   25  Occ=0.000000D+00  E= 4.000442D-01
              MO Center=  4.2D-02,  4.4D-02, -9.9D-01, r^2= 1.2D+01
   Bfn.  Coefficient  Atom+Function         Bfn.  Coefficient  Atom+Function  
  ----- ------------  ---------------      ----- ------------  ---------------
   125      1.645999  3 O  px               180     -1.567150  4 O  px         
    31     -0.956140  1 C  dxy              181      0.939301  4 O  py         
   126     -0.911655  3 O  py                30     -0.826327  1 C  dxx        
    33      0.826174  1 C  dyy              197     -0.288931  4 O  dxz        
   142      0.275192  3 O  dxz               25     -0.225580  1 C  dxy        

 Vector   26  Occ=0.000000D+00  E= 4.402637D-01
              MO Center=  6.2D-03, -5.8D-03,  3.7D-02, r^2= 1.6D+01
   Bfn.  Coefficient  Atom+Function         Bfn.  Coefficient  Atom+Function  
  ----- ------------  ---------------      ----- ------------  ---------------
   115      6.074706  3 O  s                170     -6.062264  4 O  s          
    34      4.891309  1 C  dyz               13     -4.497002  1 C  py         
    16      4.349407  1 C  py               126     -4.199911  3 O  py         
   181     -4.190964  4 O  py                71     -3.575131  2 O  py         
    32      2.817012  1 C  dxz               12     -2.590397  1 C  px         

 Vector   27  Occ=0.000000D+00  E= 4.420482D-01
              MO Center= -6.5D-04,  1.3D-03, -5.2D-02, r^2= 7.5D+00
   Bfn.  Coefficient  Atom+Function         Bfn.  Coefficient  Atom+Function  
  ----- ------------  ---------------      ----- ------------  ---------------
    15      2.006263  1 C  px                12      1.815060  1 C  px         
   125     -1.371994  3 O  px               180     -1.353971  4 O  px         
    70     -1.168117  2 O  px                16     -1.156369  1 C  py         
    13     -1.044991  1 C  py               181      0.800391  4 O  py         
   126      0.771083  3 O  py                71      0.673465  2 O  py         

 Vector   28  Occ=0.000000D+00  E= 4.433198D-01
              MO Center=  1.5D-02, -9.0D-03, -3.2D-01, r^2= 1.5D+01
   Bfn.  Coefficient  Atom+Function         Bfn.  Coefficient  Atom+Function  
  ----- ------------  ---------------      ----- ------------  ---------------
    60      7.884379  2 O  s                 14     -5.295489  1 C  pz         
    72     -5.167671  2 O  pz                17      5.011209  1 C  pz         
   127     -4.494823  3 O  pz               182     -4.507439  4 O  pz         
   170     -4.423379  4 O  s                115     -4.389744  3 O  s          
    31      2.769638  1 C  dxy               35     -2.713017  1 C  dzz        

 Vector   29  Occ=0.000000D+00  E= 4.551828D-01
              MO Center= -3.3D-04,  4.2D-03,  2.2D-01, r^2= 1.3D+01
   Bfn.  Coefficient  Atom+Function         Bfn.  Coefficient  Atom+Function  
  ----- ------------  ---------------      ----- ------------  ---------------
    71      2.475234  2 O  py               127     -2.008666  3 O  pz         
   182      1.994751  4 O  pz                70      1.426002  2 O  px         
    54     -1.009197  1 C  fyzz             115     -0.787726  3 O  s          
   170      0.778364  4 O  s                 51     -0.581260  1 C  fxzz       
    89     -0.551052  2 O  dyz               16     -0.526982  1 C  py         

 Vector   30  Occ=0.000000D+00  E= 4.836268D-01
              MO Center= -5.0D-02,  2.8D-02, -7.4D-02, r^2= 1.1D+01
   Bfn.  Coefficient  Atom+Function         Bfn.  Coefficient  Atom+Function  
  ----- ------------  ---------------      ----- ------------  ---------------
     4     10.790584  1 C  s                 60     -9.718494  2 O  s          
     5      9.111837  1 C  s                115     -9.109894  3 O  s          
   170     -9.125912  4 O  s                 35      2.987670  1 C  dzz        
    33      2.599568  1 C  dyy               30      1.664429  1 C  dxx        
    31      1.612628  1 C  dxy               72      1.459667  2 O  pz         

 Vector   31  Occ=0.000000D+00  E= 4.951893D-01
              MO Center=  4.9D-02, -2.8D-02, -1.3D-02, r^2= 6.8D+00
   Bfn.  Coefficient  Atom+Function         Bfn.  Coefficient  Atom+Function  
  ----- ------------  ---------------      ----- ------------  ---------------
    15      1.994267  1 C  px                70     -1.282921  2 O  px         
   180     -1.250803  4 O  px               125     -1.202952  3 O  px         
    16     -1.148869  1 C  py                12      0.991671  1 C  px         
   126      0.747353  3 O  py                71      0.738897  2 O  py         
   181      0.666214  4 O  py                13     -0.571515  1 C  py         

 Vector   32  Occ=0.000000D+00  E= 5.307516D-01
              MO Center= -1.4D-02, -8.4D-03,  4.6D-01, r^2= 1.1D+01
   Bfn.  Coefficient  Atom+Function         Bfn.  Coefficient  Atom+Function  
  ----- ------------  ---------------      ----- ------------  ---------------
    60     12.036351  2 O  s                 14     -6.775323  1 C  pz         
   170     -6.163381  4 O  s                115     -5.923738  3 O  s          
    72     -2.888966  2 O  pz                53      2.071982  1 C  fyyz       
    55      2.024274  1 C  fzzz              11      1.923679  1 C  pz         
    48      1.894631  1 C  fxxz              35     -1.352211  1 C  dzz        

 Vector   33  Occ=0.000000D+00  E= 5.311577D-01
              MO Center=  1.6D-02,  8.8D-03, -4.6D-01, r^2= 1.1D+01
   Bfn.  Coefficient  Atom+Function         Bfn.  Coefficient  Atom+Function  
  ----- ------------  ---------------      ----- ------------  ---------------
   115      9.626174  3 O  s                170     -9.478092  4 O  s          
    13     -5.514778  1 C  py                12     -3.178500  1 C  px         
    34      2.231905  1 C  dyz               54      1.975830  1 C  fyzz       
   126     -1.842692  3 O  py               181     -1.833894  4 O  py         
    47      1.795779  1 C  fxxy              52      1.796757  1 C  fyyy       

 Vector   34  Occ=0.000000D+00  E= 5.438787D-01
              MO Center= -3.3D-03,  2.0D-03,  4.8D-02, r^2= 8.4D+00
   Bfn.  Coefficient  Atom+Function         Bfn.  Coefficient  Atom+Function  
  ----- ------------  ---------------      ----- ------------  ---------------
    60      9.093786  2 O  s                115      7.083339  3 O  s          
   170      7.094876  4 O  s                 30     -6.541145  1 C  dxx        
    33     -5.634389  1 C  dyy               35     -5.230822  1 C  dzz        
    59     -2.934194  2 O  s                 69      2.821792  2 O  pz         
    72     -2.792320  2 O  pz                 4      2.747138  1 C  s          

 Vector   35  Occ=0.000000D+00  E= 6.500619D-01
              MO Center=  2.8D-03, -1.2D-02, -5.0D-01, r^2= 6.5D+00
   Bfn.  Coefficient  Atom+Function         Bfn.  Coefficient  Atom+Function  
  ----- ------------  ---------------      ----- ------------  ---------------
    32      4.152881  1 C  dxz               34     -2.393829  1 C  dyz        
    67     -1.945769  2 O  px                70     -1.299183  2 O  px         
    68      1.120961  2 O  py                87      0.927106  2 O  dxz        
   122      0.812557  3 O  px               177      0.776596  4 O  px         
    71      0.748448  2 O  py                51      0.697863  1 C  fxzz       

 Vector   36  Occ=0.000000D+00  E= 6.522578D-01
              MO Center= -2.6D-03,  1.2D-02,  4.1D-01, r^2= 6.6D+00
   Bfn.  Coefficient  Atom+Function         Bfn.  Coefficient  Atom+Function  
  ----- ------------  ---------------      ----- ------------  ---------------
    31      2.458497  1 C  dxy               30      2.117876  1 C  dxx        
    33     -2.119246  1 C  dyy              177      1.592834  4 O  px         
   122     -1.547211  3 O  px               180      1.053366  4 O  px         
   125     -1.039511  3 O  px               123      0.914696  3 O  py         
   178     -0.894093  4 O  py               181     -0.613285  4 O  py         

 Vector   37  Occ=0.000000D+00  E= 6.742646D-01
              MO Center= -4.1D-03,  4.4D-03, -3.1D-01, r^2= 7.9D+00
   Bfn.  Coefficient  Atom+Function         Bfn.  Coefficient  Atom+Function  
  ----- ------------  ---------------      ----- ------------  ---------------
     4     19.371404  1 C  s                 60    -12.283937  2 O  s          
   115    -10.883058  3 O  s                170    -10.903699  4 O  s          
    35     10.464104  1 C  dzz               33      8.376297  1 C  dyy        
    30      6.479952  1 C  dxx               31      3.270340  1 C  dxy        
    72      2.739626  2 O  pz               181     -2.183344  4 O  py         

 Vector   38  Occ=0.000000D+00  E= 7.003243D-01
              MO Center=  1.1D-02, -6.9D-03,  9.3D-02, r^2= 6.2D+00
   Bfn.  Coefficient  Atom+Function         Bfn.  Coefficient  Atom+Function  
  ----- ------------  ---------------      ----- ------------  ---------------
    12      4.890675  1 C  px                13     -2.817733  1 C  py         
    46     -1.138583  1 C  fxxx              49     -1.137759  1 C  fxyy       
    70     -1.009352  2 O  px                51     -0.929044  1 C  fxzz       
    47      0.912415  1 C  fxxy             180     -0.825452  4 O  px         
   125     -0.789177  3 O  px                67     -0.752894  2 O  px         

 Vector   39  Occ=0.000000D+00  E= 7.090978D-01
              MO Center= -1.0D-02, -2.0D-02,  2.5D-02, r^2= 6.4D+00
   Bfn.  Coefficient  Atom+Function         Bfn.  Coefficient  Atom+Function  
  ----- ------------  ---------------      ----- ------------  ---------------
     4     16.030078  1 C  s                 31      5.856222  1 C  dxy        
   115     -5.852896  3 O  s                170     -5.759680  4 O  s          
    33      4.760622  1 C  dyy               69      4.335452  2 O  pz         
     5      3.773681  1 C  s                 60     -3.015811  2 O  s          
    59     -2.874451  2 O  s                179     -2.561169  4 O  pz         

 Vector   40  Occ=0.000000D+00  E= 7.120929D-01
              MO Center=  6.5D-03,  2.6D-02,  3.3D-01, r^2= 8.4D+00
   Bfn.  Coefficient  Atom+Function         Bfn.  Coefficient  Atom+Function  
  ----- ------------  ---------------      ----- ------------  ---------------
    34      8.876248  1 C  dyz               32      5.115419  1 C  dxz        
    68     -3.354415  2 O  py               124     -2.976481  3 O  pz         
   179      2.831590  4 O  pz                10      2.433180  1 C  py         
    47      2.291467  1 C  fxxy              52      2.295369  1 C  fyyy       
    54      2.242620  1 C  fyzz              71     -2.116478  2 O  py         

 Vector   41  Occ=0.000000D+00  E= 7.208531D-01
              MO Center=  5.7D-03, -5.5D-03, -4.1D-01, r^2= 6.2D+00
   Bfn.  Coefficient  Atom+Function         Bfn.  Coefficient  Atom+Function  
  ----- ------------  ---------------      ----- ------------  ---------------
     4      9.574214  1 C  s                 35      4.545072  1 C  dzz        
    60     -3.681262  2 O  s                  5      3.032498  1 C  s          
    33     -2.977370  1 C  dyy               59     -2.695176  2 O  s          
   123      2.636414  3 O  py               178     -2.614413  4 O  py         
    31     -2.170405  1 C  dxy               14      1.869282  1 C  pz         

 Vector   42  Occ=0.000000D+00  E= 8.174694D-01
              MO Center=  4.2D-03,  1.3D-02, -3.2D-01, r^2= 5.6D+00
   Bfn.  Coefficient  Atom+Function         Bfn.  Coefficient  Atom+Function  
  ----- ------------  ---------------      ----- ------------  ---------------
    13     11.161437  1 C  py                34     -7.373971  1 C  dyz        
    12      6.438385  1 C  px               115     -6.055551  3 O  s          
   170      5.775284  4 O  s                114     -5.455700  3 O  s          
   169      5.266019  4 O  s                 32     -4.243287  1 C  dxz        
   123      2.267564  3 O  py               126      2.209761  3 O  py         

 Vector   43  Occ=0.000000D+00  E= 8.175515D-01
              MO Center= -2.1D-02, -5.5D-03,  4.2D-01, r^2= 6.6D+00
   Bfn.  Coefficient  Atom+Function         Bfn.  Coefficient  Atom+Function  
  ----- ------------  ---------------      ----- ------------  ---------------
    14     17.244587  1 C  pz                60     -9.793303  2 O  s          
   170      6.066579  4 O  s                 59     -5.912161  2 O  s          
   115      5.765348  3 O  s                 31     -4.232488  1 C  dxy        
    35      4.182392  1 C  dzz              169      3.732530  4 O  s          
    69      3.603310  2 O  pz                33     -3.537707  1 C  dyy        

 Vector   44  Occ=0.000000D+00  E= 8.384284D-01
              MO Center= -1.5D-02, -2.6D-02,  6.8D-02, r^2= 3.7D+00
   Bfn.  Coefficient  Atom+Function         Bfn.  Coefficient  Atom+Function  
  ----- ------------  ---------------      ----- ------------  ---------------
     4      7.428659  1 C  s                 14      6.353697  1 C  pz         
    60     -6.242568  2 O  s                115      3.918064  3 O  s          
    55     -2.902114  1 C  fzzz             170      2.569833  4 O  s          
    11     -2.506494  1 C  pz               169     -2.300135  4 O  s          
    48     -2.030844  1 C  fxxz              53     -2.031892  1 C  fyyz       

 Vector   45  Occ=0.000000D+00  E= 8.391407D-01
              MO Center=  1.5D-02,  2.5D-02,  4.4D-02, r^2= 4.3D+00
   Bfn.  Coefficient  Atom+Function         Bfn.  Coefficient  Atom+Function  
  ----- ------------  ---------------      ----- ------------  ---------------
    13     10.631779  1 C  py               170      7.661926  4 O  s          
   115     -7.074199  3 O  s                 12      6.111694  1 C  px         
    34     -2.848259  1 C  dyz              114     -1.917511  3 O  s          
   181      1.807808  4 O  py                47     -1.778458  1 C  fxxy       
    52     -1.779069  1 C  fyyy             126      1.716729  3 O  py         

 Vector   46  Occ=0.000000D+00  E= 9.241116D-01
              MO Center= -3.4D-02, -4.1D-02,  9.8D-01, r^2= 5.6D+00
   Bfn.  Coefficient  Atom+Function         Bfn.  Coefficient  Atom+Function  
  ----- ------------  ---------------      ----- ------------  ---------------
    87      1.943428  2 O  dxz               32      1.511042  1 C  dxz        
    70     -1.134256  2 O  px                26      1.117700  1 C  dxz        
    89     -1.119603  2 O  dyz               34     -0.871115  1 C  dyz        
   106     -0.834129  2 O  fxzz              71      0.653852  2 O  py         
    28     -0.643004  1 C  dyz               51      0.593331  1 C  fxzz       

 Vector   47  Occ=0.000000D+00  E= 9.255235D-01
              MO Center=  4.8D-02,  3.2D-02, -8.1D-01, r^2= 5.9D+00
   Bfn.  Coefficient  Atom+Function         Bfn.  Coefficient  Atom+Function  
  ----- ------------  ---------------      ----- ------------  ---------------
   197      1.027736  4 O  dxz               31      0.995325  1 C  dxy        
   142     -0.977896  3 O  dxz              125     -0.919688  3 O  px         
   180      0.904667  4 O  px                30      0.858518  1 C  dxx        
    33     -0.858135  1 C  dyy              144      0.600943  3 O  dyz        
   196      0.564965  4 O  dxy              199     -0.555704  4 O  dyz        

 Vector   48  Occ=0.000000D+00  E= 9.340780D-01
              MO Center= -3.6D-03,  1.2D-03,  1.1D-01, r^2= 6.7D+00
   Bfn.  Coefficient  Atom+Function         Bfn.  Coefficient  Atom+Function  
  ----- ------------  ---------------      ----- ------------  ---------------
     4     12.220927  1 C  s                 60     11.130088  2 O  s          
   115      7.547606  3 O  s                170      7.570515  4 O  s          
    30     -5.859613  1 C  dxx               50      5.304775  1 C  fxyz       
    35     -5.222733  1 C  dzz               53      5.073266  1 C  fyyz       
    33     -4.911394  1 C  dyy               69      4.605373  2 O  pz         

 Vector   49  Occ=0.000000D+00  E= 9.662335D-01
              MO Center=  7.7D-03, -4.0D-03, -3.2D-01, r^2= 6.1D+00
   Bfn.  Coefficient  Atom+Function         Bfn.  Coefficient  Atom+Function  
  ----- ------------  ---------------      ----- ------------  ---------------
    49      3.404496  1 C  fxyy             114     -3.182305  3 O  s          
   169      3.187008  4 O  s                 47      2.759465  1 C  fxxy       
    52      2.766549  1 C  fyyy              89      2.698827  2 O  dyz        
    54      2.616013  1 C  fyzz              68     -2.204722  2 O  py         
    10      1.981807  1 C  py                34      1.746032  1 C  dyz        

 Vector   50  Occ=0.000000D+00  E= 9.771785D-01
              MO Center= -7.3D-03, -1.0D-02,  3.0D-01, r^2= 7.6D+00
   Bfn.  Coefficient  Atom+Function         Bfn.  Coefficient  Atom+Function  
  ----- ------------  ---------------      ----- ------------  ---------------
    54      4.161010  1 C  fyzz              89      2.813790  2 O  dyz        
    51      2.395557  1 C  fxzz              87      1.620255  2 O  dxz        
    71     -1.544676  2 O  py                49     -1.536841  1 C  fxyy       
   199     -1.489550  4 O  dyz              144     -1.436152  3 O  dyz        
   182     -1.215436  4 O  pz               127      1.200348  3 O  pz         

 Vector   51  Occ=0.000000D+00  E= 9.810314D-01
              MO Center=  5.5D-03,  1.1D-02,  1.7D-01, r^2= 6.7D+00
   Bfn.  Coefficient  Atom+Function         Bfn.  Coefficient  Atom+Function  
  ----- ------------  ---------------      ----- ------------  ---------------
    14      3.312343  1 C  pz                55      2.209436  1 C  fzzz       
    60     -2.189371  2 O  s                 59     -2.072809  2 O  s          
   144      1.912725  3 O  dyz              199     -1.921094  4 O  dyz        
    33      1.816829  1 C  dyy              115     -1.663201  3 O  s          
   170     -1.651685  4 O  s                 53      1.604120  1 C  fyyz       

 Vector   52  Occ=0.000000D+00  E= 1.015231D+00
              MO Center= -1.3D-02,  9.5D-03, -2.4D-01, r^2= 7.3D+00
   Bfn.  Coefficient  Atom+Function         Bfn.  Coefficient  Atom+Function  
  ----- ------------  ---------------      ----- ------------  ---------------
    87      1.689946  2 O  dxz               51      1.540687  1 C  fxzz       
    15      1.495920  1 C  px                 9      1.246262  1 C  px         
   180     -1.108291  4 O  px                12      1.099290  1 C  px         
   125     -1.099258  3 O  px                70     -1.064587  2 O  px         
   197     -0.986129  4 O  dxz               89     -0.973432  2 O  dyz        

 Vector   53  Occ=0.000000D+00  E= 1.019009D+00
              MO Center=  3.4D-02,  2.6D-02, -5.3D-01, r^2= 7.7D+00
   Bfn.  Coefficient  Atom+Function         Bfn.  Coefficient  Atom+Function  
  ----- ------------  ---------------      ----- ------------  ---------------
   114      7.585614  3 O  s                169     -7.534036  4 O  s          
    10     -6.828852  1 C  py               115     -6.731289  3 O  s          
   170      6.622346  4 O  s                 54     -6.432444  1 C  fyzz       
    47     -5.533391  1 C  fxxy              52     -5.537400  1 C  fyyy       
    13      4.417217  1 C  py               123     -4.030958  3 O  py         

 Vector   54  Occ=0.000000D+00  E= 1.022846D+00
              MO Center=  5.3D-03, -4.2D-02, -4.7D-01, r^2= 7.0D+00
   Bfn.  Coefficient  Atom+Function         Bfn.  Coefficient  Atom+Function  
  ----- ------------  ---------------      ----- ------------  ---------------
    59     10.654410  2 O  s                 60     -7.602707  2 O  s          
    69     -7.552349  2 O  pz                11     -7.375386  1 C  pz         
    55     -6.516836  1 C  fzzz              14      5.379193  1 C  pz         
    48     -5.170690  1 C  fxxz              53     -5.029532  1 C  fyyz       
    90      4.183869  2 O  dzz              170      3.822827  4 O  s          

 Vector   55  Occ=0.000000D+00  E= 1.041750D+00
              MO Center= -2.3D-03, -2.7D-03,  8.0D-01, r^2= 5.5D+00
   Bfn.  Coefficient  Atom+Function         Bfn.  Coefficient  Atom+Function  
  ----- ------------  ---------------      ----- ------------  ---------------
    33      5.157794  1 C  dyy                5     -4.436911  1 C  s          
    35      4.439257  1 C  dzz               30      4.371549  1 C  dxx        
   114      4.290808  3 O  s                169      4.306297  4 O  s          
    53      4.065553  1 C  fyyz             115     -2.973389  3 O  s          
   170     -2.970391  4 O  s                 90     -2.829484  2 O  dzz        

 Vector   56  Occ=0.000000D+00  E= 1.047856D+00
              MO Center=  2.7D-03, -7.7D-04, -3.2D-01, r^2= 5.5D+00
   Bfn.  Coefficient  Atom+Function         Bfn.  Coefficient  Atom+Function  
  ----- ------------  ---------------      ----- ------------  ---------------
    50      1.490747  1 C  fxyz              31      1.317108  1 C  dxy        
    48      1.285111  1 C  fxxz              53     -1.285545  1 C  fyyz       
    30      1.135633  1 C  dxx               33     -1.135656  1 C  dyy        
   141     -1.001780  3 O  dxy              196     -0.975758  4 O  dxy        
    86     -0.889757  2 O  dxy              195     -0.863468  4 O  dxx        

 Vector   57  Occ=0.000000D+00  E= 1.071177D+00
              MO Center=  7.9D-05,  9.7D-04, -1.9D-01, r^2= 5.6D+00
   Bfn.  Coefficient  Atom+Function         Bfn.  Coefficient  Atom+Function  
  ----- ------------  ---------------      ----- ------------  ---------------
    32      2.641490  1 C  dxz              142     -1.982933  3 O  dxz        
   197     -1.973545  4 O  dxz               34     -1.521949  1 C  dyz        
   199      1.149528  4 O  dyz              144      1.130299  3 O  dyz        
    87     -1.121408  2 O  dxz               67     -1.112532  2 O  px         
    47      0.951144  1 C  fxxy              26     -0.860120  1 C  dxz        

 Vector   58  Occ=0.000000D+00  E= 1.078716D+00
              MO Center= -1.1D-02,  5.6D-03,  5.0D-01, r^2= 4.6D+00
   Bfn.  Coefficient  Atom+Function         Bfn.  Coefficient  Atom+Function  
  ----- ------------  ---------------      ----- ------------  ---------------
    86      1.135961  2 O  dxy               85      0.979349  2 O  dxx        
    88     -0.979482  2 O  dyy              142     -0.834852  3 O  dxz        
   197      0.808944  4 O  dxz               31     -0.698192  1 C  dxy        
    30     -0.601985  1 C  dxx               33      0.602029  1 C  dyy        
   199     -0.495232  4 O  dyz               50     -0.475603  1 C  fxyz       

 Vector   59  Occ=0.000000D+00  E= 1.103183D+00
              MO Center= -8.1D-03,  3.8D-03, -5.3D-02, r^2= 6.6D+00
   Bfn.  Coefficient  Atom+Function         Bfn.  Coefficient  Atom+Function  
  ----- ------------  ---------------      ----- ------------  ---------------
    60     12.399631  2 O  s                115     12.021568  3 O  s          
   170     12.030785  4 O  s                 35     -9.910329  1 C  dzz        
    33     -9.698081  1 C  dyy                4     -7.133553  1 C  s          
    30     -7.047359  1 C  dxx               59     -5.085351  2 O  s          
    31     -4.571406  1 C  dxy               50     -3.477630  1 C  fxyz       

 Vector   60  Occ=0.000000D+00  E= 1.111442D+00
              MO Center= -7.1D-03,  8.2D-03,  3.1D-01, r^2= 6.0D+00
   Bfn.  Coefficient  Atom+Function         Bfn.  Coefficient  Atom+Function  
  ----- ------------  ---------------      ----- ------------  ---------------
   114     -4.406249  3 O  s                169      4.405871  4 O  s          
    10      4.128851  1 C  py               123      3.114352  3 O  py         
   178      3.098077  4 O  py                47      2.846614  1 C  fxxy       
    52      2.847673  1 C  fyyy              13     -2.798600  1 C  py         
    34     -2.639138  1 C  dyz              144      2.644058  3 O  dyz        

 Vector   61  Occ=0.000000D+00  E= 1.119704D+00
              MO Center=  1.1D-02, -3.9D-03, -6.8D-01, r^2= 5.8D+00
   Bfn.  Coefficient  Atom+Function         Bfn.  Coefficient  Atom+Function  
  ----- ------------  ---------------      ----- ------------  ---------------
    35      6.538626  1 C  dzz              115     -6.039840  3 O  s          
   170     -6.049836  4 O  s                 60     -5.421245  2 O  s          
     4      5.380886  1 C  s                 53      4.500632  1 C  fyyz       
    11      4.413746  1 C  pz                59     -4.394503  2 O  s          
    69      4.147646  2 O  pz                33      3.724057  1 C  dyy        

 Vector   62  Occ=0.000000D+00  E= 1.146817D+00
              MO Center=  1.0D-02, -5.8D-03,  1.2D-01, r^2= 3.8D+00
   Bfn.  Coefficient  Atom+Function         Bfn.  Coefficient  Atom+Function  
  ----- ------------  ---------------      ----- ------------  ---------------
   122      2.983605  3 O  px               177     -2.902038  4 O  px         
    31     -1.957009  1 C  dxy              178      1.727259  4 O  py         
    30     -1.688485  1 C  dxx               33      1.686893  1 C  dyy        
   123     -1.663280  3 O  py                50      1.411034  1 C  fxyz       
    48      1.215589  1 C  fxxz              53     -1.217760  1 C  fyyz       

 Vector   63  Occ=0.000000D+00  E= 1.154811D+00
              MO Center=  1.2D-02, -5.8D-03, -9.3D-02, r^2= 3.9D+00
   Bfn.  Coefficient  Atom+Function         Bfn.  Coefficient  Atom+Function  
  ----- ------------  ---------------      ----- ------------  ---------------
    67      3.698216  2 O  px                32     -3.249112  1 C  dxz        
    87     -2.216889  2 O  dxz               68     -2.130343  2 O  py         
    34      1.870916  1 C  dyz              177     -1.672340  4 O  px         
   122     -1.617825  3 O  px                51     -1.465333  1 C  fxzz       
    89      1.277653  2 O  dyz               47      1.055334  1 C  fxxy       

 Vector   64  Occ=0.000000D+00  E= 1.203532D+00
              MO Center=  1.5D-02, -8.9D-03,  9.8D-03, r^2= 4.9D+00
   Bfn.  Coefficient  Atom+Function         Bfn.  Coefficient  Atom+Function  
  ----- ------------  ---------------      ----- ------------  ---------------
    67      4.342215  2 O  px               177      4.119036  4 O  px         
   122      4.052279  3 O  px                12     -3.682428  1 C  px         
    87     -3.631997  2 O  dxz               51     -3.323561  1 C  fxzz       
     9     -2.663575  1 C  px                68     -2.501509  2 O  py         
   123     -2.403813  3 O  py               178     -2.303401  4 O  py         

 Vector   65  Occ=0.000000D+00  E= 1.225067D+00
              MO Center= -7.6D-03,  3.0D-03,  2.5D-01, r^2= 5.5D+00
   Bfn.  Coefficient  Atom+Function         Bfn.  Coefficient  Atom+Function  
  ----- ------------  ---------------      ----- ------------  ---------------
     4     31.404331  1 C  s                 69      8.281448  2 O  pz         
    59     -7.980691  2 O  s                 60     -7.830627  2 O  s          
   115     -6.958186  3 O  s                170     -6.961598  4 O  s          
    31      5.025471  1 C  dxy               33      4.991486  1 C  dyy        
    35      4.273308  1 C  dzz                5      3.681051  1 C  s          

 Vector   66  Occ=0.000000D+00  E= 1.267108D+00
              MO Center=  4.5D-02,  7.2D-02, -4.5D-01, r^2= 5.6D+00
   Bfn.  Coefficient  Atom+Function         Bfn.  Coefficient  Atom+Function  
  ----- ------------  ---------------      ----- ------------  ---------------
    13     15.653430  1 C  py                34    -10.690278  1 C  dyz        
    12      9.055931  1 C  px                32     -6.128628  1 C  dxz        
   115     -4.370299  3 O  s                170      3.843484  4 O  s          
   114     -3.562701  3 O  s                169      3.571116  4 O  s          
   141      3.456323  3 O  dxy               10     -3.237059  1 C  py         

 Vector   67  Occ=0.000000D+00  E= 1.267339D+00
              MO Center= -5.5D-02, -6.7D-02,  4.5D-01, r^2= 5.5D+00
   Bfn.  Coefficient  Atom+Function         Bfn.  Coefficient  Atom+Function  
  ----- ------------  ---------------      ----- ------------  ---------------
    14     16.968025  1 C  pz                31     -5.988976  1 C  dxy        
    35      5.993261  1 C  dzz               33     -5.565819  1 C  dyy        
    11     -5.155299  1 C  pz                60     -4.666694  2 O  s          
     4      3.990291  1 C  s                 55     -3.902407  1 C  fzzz       
    85     -3.911735  2 O  dxx               53     -3.845997  1 C  fyyz       

 Vector   68  Occ=0.000000D+00  E= 1.292177D+00
              MO Center=  3.6D-03,  5.1D-04, -2.0D-01, r^2= 5.4D+00
   Bfn.  Coefficient  Atom+Function         Bfn.  Coefficient  Atom+Function  
  ----- ------------  ---------------      ----- ------------  ---------------
   114     11.294872  3 O  s                169    -11.300094  4 O  s          
   124      9.234694  3 O  pz               179     -9.265461  4 O  pz         
    10     -6.960212  1 C  py                68      6.791170  2 O  py         
    47     -6.712306  1 C  fxxy              52     -6.716909  1 C  fyyy       
    13     -6.665596  1 C  py               178     -6.317667  4 O  py         

 Vector   69  Occ=0.000000D+00  E= 1.308970D+00
              MO Center=  1.2D-03, -3.4D-04, -6.6D-02, r^2= 5.2D+00
   Bfn.  Coefficient  Atom+Function         Bfn.  Coefficient  Atom+Function  
  ----- ------------  ---------------      ----- ------------  ---------------
    59    -11.632484  2 O  s                 14     11.382681  1 C  pz         
    69     10.642614  2 O  pz               123     -7.115588  3 O  py         
   178      7.083105  4 O  py               114      6.387331  3 O  s          
   169      6.374700  4 O  s                 11      5.911415  1 C  pz         
    53      5.800973  1 C  fyyz              48      5.182846  1 C  fxxz       

 Vector   70  Occ=0.000000D+00  E= 1.371366D+00
              MO Center=  4.6D-03, -2.7D-03,  2.1D-02, r^2= 3.5D+00
   Bfn.  Coefficient  Atom+Function         Bfn.  Coefficient  Atom+Function  
  ----- ------------  ---------------      ----- ------------  ---------------
    12      3.806940  1 C  px                46     -2.988085  1 C  fxxx       
    49     -2.987926  1 C  fxyy              51     -2.713229  1 C  fxzz       
    13     -2.193303  1 C  py                47      1.776685  1 C  fxxy       
    52      1.703152  1 C  fyyy              54      1.563451  1 C  fyzz       
   122      0.764708  3 O  px               177      0.753182  4 O  px         

 Vector   71  Occ=0.000000D+00  E= 1.387456D+00
              MO Center=  8.6D-04, -4.0D-04,  1.8D-01, r^2= 5.7D+00
   Bfn.  Coefficient  Atom+Function         Bfn.  Coefficient  Atom+Function  
  ----- ------------  ---------------      ----- ------------  ---------------
    54      8.854418  1 C  fyzz              68     -6.548462  2 O  py         
    89      5.809747  2 O  dyz               51      5.099587  1 C  fxzz       
   123      4.430585  3 O  py               178      4.408084  4 O  py         
    67     -3.772284  2 O  px               114     -3.550827  3 O  s          
   169      3.558532  4 O  s                 13      3.399047  1 C  py         

 Vector   72  Occ=0.000000D+00  E= 1.480992D+00
              MO Center= -1.7D-03,  4.2D-03, -6.2D-02, r^2= 4.5D+00
   Bfn.  Coefficient  Atom+Function         Bfn.  Coefficient  Atom+Function  
  ----- ------------  ---------------      ----- ------------  ---------------
    14     12.388627  1 C  pz                53    -10.676170  1 C  fyyz       
    55    -10.379275  1 C  fzzz              48    -10.064370  1 C  fxxz       
    59      8.993153  2 O  s                 60     -8.839326  2 O  s          
    11     -7.832440  1 C  pz                69     -5.084764  2 O  pz         
   170      4.333520  4 O  s                115      4.256419  3 O  s          

 Vector   73  Occ=0.000000D+00  E= 1.489023D+00
              MO Center= -1.1D-02,  5.7D-04,  2.5D-01, r^2= 4.3D+00
   Bfn.  Coefficient  Atom+Function         Bfn.  Coefficient  Atom+Function  
  ----- ------------  ---------------      ----- ------------  ---------------
    47    -10.552885  1 C  fxxy              52    -10.556197  1 C  fyyy       
    54    -10.411723  1 C  fyzz              13     10.287084  1 C  py         
   114      9.311429  3 O  s                169     -9.273014  4 O  s          
    10     -7.996490  1 C  py                49     -7.078430  1 C  fxyy       
   115     -6.781135  3 O  s                170      6.740437  4 O  s          

 Vector   74  Occ=0.000000D+00  E= 1.516502D+00
              MO Center= -7.3D-03,  4.9D-03,  2.5D-01, r^2= 4.4D+00
   Bfn.  Coefficient  Atom+Function         Bfn.  Coefficient  Atom+Function  
  ----- ------------  ---------------      ----- ------------  ---------------
     4     22.175002  1 C  s                 69     15.108037  2 O  pz         
    53     12.116640  1 C  fyyz              59     -9.428598  2 O  s          
    50      9.216698  1 C  fxyz              90     -7.577295  2 O  dzz        
    48      6.769619  1 C  fxxz              11      4.834477  1 C  pz         
    88     -4.460057  2 O  dyy              114      4.406153  3 O  s          

 Vector   75  Occ=0.000000D+00  E= 1.577311D+00
              MO Center= -2.1D-02,  1.1D-02, -4.7D-01, r^2= 4.7D+00
   Bfn.  Coefficient  Atom+Function         Bfn.  Coefficient  Atom+Function  
  ----- ------------  ---------------      ----- ------------  ---------------
   169    -21.836419  4 O  s                114     21.685473  3 O  s          
   178    -18.200407  4 O  py               123    -17.764653  3 O  py         
   179    -13.560904  4 O  pz               124     13.425317  3 O  pz         
    10    -13.200515  1 C  py                54    -12.338321  1 C  fyzz       
    47    -12.011579  1 C  fxxy              52    -12.015441  1 C  fyyy       

 Vector   76  Occ=0.000000D+00  E= 1.590945D+00
              MO Center= -9.3D-02,  5.4D-02, -8.9D-02, r^2= 3.8D+00
   Bfn.  Coefficient  Atom+Function         Bfn.  Coefficient  Atom+Function  
  ----- ------------  ---------------      ----- ------------  ---------------
    69     -3.368489  2 O  pz                59      3.251631  2 O  s          
   178     -2.965988  4 O  py                26      2.888517  1 C  dxz        
   122      2.828815  3 O  px                32      2.530581  1 C  dxz        
    51     -2.277776  1 C  fxzz              67     -2.265864  2 O  px         
    87      2.075916  2 O  dxz               55     -2.045266  1 C  fzzz       

 Vector   77  Occ=0.000000D+00  E= 1.598407D+00
              MO Center=  9.9D-02, -5.2D-02,  6.6D-03, r^2= 4.8D+00
   Bfn.  Coefficient  Atom+Function         Bfn.  Coefficient  Atom+Function  
  ----- ------------  ---------------      ----- ------------  ---------------
    69    -24.631785  2 O  pz                59     23.739321  2 O  s          
   123     15.001435  3 O  py               178    -14.770715  4 O  py         
    55    -14.567960  1 C  fzzz              11    -14.157503  1 C  pz         
     4     12.547452  1 C  s                114    -12.489143  3 O  s          
   169    -12.393435  4 O  s                 48    -11.785381  1 C  fxxz       

 Vector   78  Occ=0.000000D+00  E= 1.605964D+00
              MO Center=  3.1D-02, -1.8D-02, -3.4D-02, r^2= 3.8D+00
   Bfn.  Coefficient  Atom+Function         Bfn.  Coefficient  Atom+Function  
  ----- ------------  ---------------      ----- ------------  ---------------
   177      2.670521  4 O  px                50      2.264255  1 C  fxyz       
   123      2.037493  3 O  py                48      1.948108  1 C  fxxz       
    53     -1.949981  1 C  fyyz             197      1.894641  4 O  dxz        
   122     -1.819970  3 O  px                25      1.762410  1 C  dxy        
    31      1.678336  1 C  dxy               24      1.518448  1 C  dxx        

 Vector   79  Occ=0.000000D+00  E= 1.679649D+00
              MO Center= -4.5D-03,  2.3D-03,  1.9D-01, r^2= 3.8D+00
   Bfn.  Coefficient  Atom+Function         Bfn.  Coefficient  Atom+Function  
  ----- ------------  ---------------      ----- ------------  ---------------
    49      6.685454  1 C  fxyy              13      5.341669  1 C  py         
    68     -5.245754  2 O  py                89      3.999948  2 O  dyz        
    54      3.585022  1 C  fyzz              28      3.348269  1 C  dyz        
   114     -3.125549  3 O  s                169      3.111423  4 O  s          
    12      3.077226  1 C  px                67     -3.021380  2 O  px         

 Vector   80  Occ=0.000000D+00  E= 1.682905D+00
              MO Center=  3.5D-03, -1.5D-03, -2.5D-01, r^2= 3.9D+00
   Bfn.  Coefficient  Atom+Function         Bfn.  Coefficient  Atom+Function  
  ----- ------------  ---------------      ----- ------------  ---------------
    50      7.506369  1 C  fxyz              14      5.847923  1 C  pz         
   124     -5.808373  3 O  pz               179     -5.829532  4 O  pz         
     4      5.534273  1 C  s                 53      3.648266  1 C  fyyz       
    55      3.659741  1 C  fzzz              59     -3.471154  2 O  s          
   199     -3.305490  4 O  dyz              144      3.228715  3 O  dyz        

 Vector   81  Occ=0.000000D+00  E= 1.710982D+00
              MO Center=  7.6D-03, -3.1D-03, -1.5D-01, r^2= 3.3D+00
   Bfn.  Coefficient  Atom+Function         Bfn.  Coefficient  Atom+Function  
  ----- ------------  ---------------      ----- ------------  ---------------
    50      4.552671  1 C  fxyz              48      3.925074  1 C  fxxz       
    53     -3.926394  1 C  fyyz              25     -2.194326  1 C  dxy        
    24     -1.891864  1 C  dxx               27      1.891800  1 C  dyy        
   122      1.685245  3 O  px               177     -1.568203  4 O  px         
   141     -1.305572  3 O  dxy              196     -1.298690  4 O  dxy        

 Vector   82  Occ=0.000000D+00  E= 1.731561D+00
              MO Center=  9.9D-04, -1.4D-03,  1.4D-01, r^2= 3.3D+00
   Bfn.  Coefficient  Atom+Function         Bfn.  Coefficient  Atom+Function  
  ----- ------------  ---------------      ----- ------------  ---------------
    26      4.292703  1 C  dxz               51      4.013457  1 C  fxzz       
    47     -3.012875  1 C  fxxy              87      2.731981  2 O  dxz        
    28     -2.473383  1 C  dyz               54     -2.313133  1 C  fyzz       
    67     -1.991261  2 O  px                52      1.657541  1 C  fyyy       
    89     -1.574239  2 O  dyz              197      1.445722  4 O  dxz        

 Vector   83  Occ=0.000000D+00  E= 1.768900D+00
              MO Center= -3.6D-03,  1.6D-03,  7.1D-02, r^2= 3.5D+00
   Bfn.  Coefficient  Atom+Function         Bfn.  Coefficient  Atom+Function  
  ----- ------------  ---------------      ----- ------------  ---------------
    51      6.733791  1 C  fxzz              67     -4.354709  2 O  px         
    47      3.999086  1 C  fxxy              54     -3.878331  1 C  fyzz       
    87      3.766323  2 O  dxz              177     -3.700558  4 O  px         
   122     -3.618620  3 O  px                52     -3.445349  1 C  fyyy       
     9      3.010025  1 C  px                12      2.850216  1 C  px         

 Vector   84  Occ=0.000000D+00  E= 1.783793D+00
              MO Center= -1.2D-03, -4.0D-04,  1.2D-01, r^2= 3.8D+00
   Bfn.  Coefficient  Atom+Function         Bfn.  Coefficient  Atom+Function  
  ----- ------------  ---------------      ----- ------------  ---------------
     4     21.682109  1 C  s                 69     11.863198  2 O  pz         
    60      8.987933  2 O  s                 33     -7.721472  1 C  dyy        
    35     -7.585189  1 C  dzz               30     -6.927841  1 C  dxx        
   115      6.864433  3 O  s                170      6.883763  4 O  s          
    90     -6.720562  2 O  dzz              178     -4.635918  4 O  py         

 Vector   85  Occ=0.000000D+00  E= 1.962502D+00
              MO Center= -6.9D-03,  1.9D-03,  1.5D-01, r^2= 4.7D+00
   Bfn.  Coefficient  Atom+Function         Bfn.  Coefficient  Atom+Function  
  ----- ------------  ---------------      ----- ------------  ---------------
     4     15.661480  1 C  s                 59     14.219864  2 O  s          
    50     13.623712  1 C  fxyz              53     10.499711  1 C  fyyz       
    69      9.892229  2 O  pz                55     -9.382073  1 C  fzzz       
   178     -8.044582  4 O  py               123      7.975554  3 O  py         
    90     -7.682523  2 O  dzz               25     -7.255480  1 C  dxy        

 Vector   86  Occ=0.000000D+00  E= 1.984557D+00
              MO Center=  2.0D-03, -8.7D-04, -7.2D-02, r^2= 4.4D+00
   Bfn.  Coefficient  Atom+Function         Bfn.  Coefficient  Atom+Function  
  ----- ------------  ---------------      ----- ------------  ---------------
    54     12.844880  1 C  fyzz              51      7.397978  1 C  fxzz       
    49     -4.043728  1 C  fxyy              89      3.031432  2 O  dyz        
   123      2.263013  3 O  py               178      2.251255  4 O  py         
    68     -2.178025  2 O  py               109     -1.845073  2 O  fyzz       
   196      1.826867  4 O  dxy              141     -1.804756  3 O  dxy        

 Vector   87  Occ=0.000000D+00  E= 2.119920D+00
              MO Center=  7.6D-02,  1.4D-01,  3.7D-01, r^2= 4.9D+00
   Bfn.  Coefficient  Atom+Function         Bfn.  Coefficient  Atom+Function  
  ----- ------------  ---------------      ----- ------------  ---------------
    59     17.405462  2 O  s                 11    -14.325743  1 C  pz         
    53    -13.813831  1 C  fyyz             114    -12.524239  3 O  s          
    55    -11.401989  1 C  fzzz              48     -9.528737  1 C  fxxz       
   169     -8.246168  4 O  s                 50     -7.444272  1 C  fxyz       
    69     -6.900560  2 O  pz                14      6.657157  1 C  pz         

 Vector   88  Occ=0.000000D+00  E= 2.120633D+00
              MO Center= -7.2D-02, -1.5D-01, -5.2D-01, r^2= 5.1D+00
   Bfn.  Coefficient  Atom+Function         Bfn.  Coefficient  Atom+Function  
  ----- ------------  ---------------      ----- ------------  ---------------
   169     16.202037  4 O  s                114    -13.155550  3 O  s          
    10     12.158795  1 C  py                54     10.823790  1 C  fyzz       
    47     10.158295  1 C  fxxy              52     10.197433  1 C  fyyy       
    49     10.131061  1 C  fxyy              28     -7.537435  1 C  dyz        
     9      6.958652  1 C  px                51      6.171869  1 C  fxzz       

 Vector   89  Occ=0.000000D+00  E= 2.175358D+00
              MO Center=  2.4D-02,  1.9D-03, -6.0D-01, r^2= 3.6D+00
   Bfn.  Coefficient  Atom+Function         Bfn.  Coefficient  Atom+Function  
  ----- ------------  ---------------      ----- ------------  ---------------
   122      2.220378  3 O  px               177     -2.077369  4 O  px         
   161     -1.760084  3 O  fxzz             216      1.732888  4 O  fxzz       
   178      1.334215  4 O  py               159     -1.295516  3 O  fxyy       
   156     -1.288589  3 O  fxxx             211      1.262695  4 O  fxxx       
   214      1.258788  4 O  fxyy             123     -1.139788  3 O  py         

 Vector   90  Occ=0.000000D+00  E= 2.176288D+00
              MO Center= -1.4D-02, -1.0D-02,  7.9D-01, r^2= 3.2D+00
   Bfn.  Coefficient  Atom+Function         Bfn.  Coefficient  Atom+Function  
  ----- ------------  ---------------      ----- ------------  ---------------
    67      2.960545  2 O  px               106     -2.251742  2 O  fxzz       
    68     -1.707794  2 O  py               101     -1.627869  2 O  fxxx       
   104     -1.629049  2 O  fxyy             109      1.298780  2 O  fyzz       
   107      1.056341  2 O  fyyy             177     -1.025383  4 O  px         
   122     -1.014040  3 O  px               211      0.716796  4 O  fxxx       

 Vector   91  Occ=0.000000D+00  E= 2.210363D+00
              MO Center=  1.1D-02, -2.1D-03, -2.5D-01, r^2= 4.6D+00
   Bfn.  Coefficient  Atom+Function         Bfn.  Coefficient  Atom+Function  
  ----- ------------  ---------------      ----- ------------  ---------------
   177      1.742261  4 O  px               122      1.705337  3 O  px         
   216     -1.524571  4 O  fxzz             161     -1.508067  3 O  fxzz       
   106     -1.399715  2 O  fxzz              67      1.219165  2 O  px         
   214     -1.107220  4 O  fxyy             156     -1.090683  3 O  fxxx       
   211     -1.094082  4 O  fxxx             159     -1.082279  3 O  fxyy       

 Vector   92  Occ=0.000000D+00  E= 2.218158D+00
              MO Center= -1.0D-02,  4.9D-03,  5.3D-01, r^2= 3.7D+00
   Bfn.  Coefficient  Atom+Function         Bfn.  Coefficient  Atom+Function  
  ----- ------------  ---------------      ----- ------------  ---------------
   114     13.761343  3 O  s                169    -13.790703  4 O  s          
[...]
   121     11.261411  3 O  pz               176      7.777279  4 O  pz         
   124      6.234402  3 O  pz               120      5.900588  3 O  py         
   148     -5.761537  3 O  fxxz             153     -5.773953  3 O  fyyz       
   155     -5.760833  3 O  fzzz             175     -4.423448  4 O  py         
   179      4.322062  4 O  pz               158     -4.105492  3 O  fxxz       

 Vector  214  Occ=0.000000D+00  E= 1.620931D+01
              MO Center=  1.5D-03, -5.5D-04, -2.3D-03, r^2= 3.2D+00
   Bfn.  Coefficient  Atom+Function         Bfn.  Coefficient  Atom+Function  
  ----- ------------  ---------------      ----- ------------  ---------------
     4     20.619763  1 C  s                 66      9.264076  2 O  pz         
   175     -6.987406  4 O  py               120      6.920327  3 O  py         
    69      6.048453  2 O  pz                93     -4.998949  2 O  fxxz       
    98     -4.991097  2 O  fyyz             100     -4.806092  2 O  fzzz       
   176     -4.651285  4 O  pz               121     -4.613552  3 O  pz         

 Vector  215  Occ=0.000000D+00  E= 1.656443D+01
              MO Center=  1.6D-01,  2.6D-01, -6.0D-01, r^2= 2.4D+00
   Bfn.  Coefficient  Atom+Function         Bfn.  Coefficient  Atom+Function  
  ----- ------------  ---------------      ----- ------------  ---------------
   114     12.213948  3 O  s                123    -10.780870  3 O  py         
   120    -10.036264  3 O  py               169     -9.260137  4 O  s          
   178     -7.907062  4 O  py               124      7.767939  3 O  pz         
   175     -7.581095  4 O  py                13     -7.217994  1 C  py         
   121      6.861738  3 O  pz                10     -6.749027  1 C  py         

 Vector  216  Occ=0.000000D+00  E= 1.656453D+01
              MO Center= -1.6D-01, -2.6D-01,  5.9D-01, r^2= 2.4D+00
   Bfn.  Coefficient  Atom+Function         Bfn.  Coefficient  Atom+Function  
  ----- ------------  ---------------      ----- ------------  ---------------
    69     14.949540  2 O  pz                66     13.726863  2 O  pz         
    59    -12.399958  2 O  s                169      8.758397  4 O  s          
   178      8.507666  4 O  py                14      8.349871  1 C  pz         
    11      7.808063  1 C  pz               175      7.472189  4 O  py         
    93     -6.603135  2 O  fxxz              98     -6.578681  2 O  fyyz       

 Vector  217  Occ=0.000000D+00  E= 1.729884D+01
              MO Center=  1.6D-03, -3.9D-04, -2.3D-03, r^2= 2.1D+00
   Bfn.  Coefficient  Atom+Function         Bfn.  Coefficient  Atom+Function  
  ----- ------------  ---------------      ----- ------------  ---------------
    59      6.953385  2 O  s                114      6.955241  3 O  s          
   169      6.953895  4 O  s                  4      6.461798  1 C  s          
    57      4.260969  2 O  s                112      4.261988  3 O  s          
   167      4.261159  4 O  s                 66      3.489829  2 O  pz         
    84     -3.273231  2 O  dzz              137     -3.201139  3 O  dyy        

 Vector  218  Occ=0.000000D+00  E= 1.744313D+01
              MO Center=  3.0D-01,  5.2D-01,  2.4D-02, r^2= 1.7D+00
   Bfn.  Coefficient  Atom+Function         Bfn.  Coefficient  Atom+Function  
  ----- ------------  ---------------      ----- ------------  ---------------
    69      5.510881  2 O  pz               123     -5.488546  3 O  py         
    66      5.020207  2 O  pz               114     -4.960802  3 O  s          
   120     -4.981126  3 O  py                14      4.693386  1 C  pz         
   137      4.416064  3 O  dyy              139      4.290790  3 O  dzz        
   143      4.243395  3 O  dyy              134      4.222109  3 O  dxx        

 Vector  219  Occ=0.000000D+00  E= 1.744315D+01
              MO Center= -3.0D-01, -5.2D-01, -2.8D-02, r^2= 1.7D+00
   Bfn.  Coefficient  Atom+Function         Bfn.  Coefficient  Atom+Function  
  ----- ------------  ---------------      ----- ------------  ---------------
   178      5.601042  4 O  py                69      5.293613  2 O  pz         
   175      5.086836  4 O  py               169     -5.014942  4 O  s          
    66      4.822349  2 O  pz                14      4.530033  1 C  pz         
   192      4.471299  4 O  dyy              194      4.338176  4 O  dzz        
   198      4.306399  4 O  dyy              189      4.260994  4 O  dxx        

 Vector  220  Occ=0.000000D+00  E= 2.465474D+01
              MO Center=  1.5D-03, -5.7D-04, -2.2D-03, r^2= 1.9D+00
   Bfn.  Coefficient  Atom+Function         Bfn.  Coefficient  Atom+Function  
  ----- ------------  ---------------      ----- ------------  ---------------
     2     27.780480  1 C  s                  4     16.335442  1 C  s          
     1     13.721563  1 C  s                 59    -12.581979  2 O  s          
   114    -12.575660  3 O  s                169    -12.579202  4 O  s          
    25      6.738462  1 C  dxy               69      6.747445  2 O  pz         
    35     -5.773712  1 C  dzz               33     -5.382939  1 C  dyy        


 center of mass
 --------------
 x =   0.00280339 y =  -0.00104735 z =  -0.00421769

 moments of inertia (a.u.)
 ------------------
         259.994509667863         -64.219606850136           2.396932752462
         -64.219606850136         185.519878861741          -1.381383404543
           2.396932752462          -1.381383404543         148.572293928984

     Multipole analysis of the density
     ---------------------------------

     L   x y z        total         alpha         beta         nuclear
     -   - - -        -----         -----         ----         -------
     0   0 0 0     -2.000000    -16.000000    -16.000000     30.000000

     1   1 0 0     -0.005660     -0.044881     -0.044881      0.084102
     1   0 1 0      0.002037      0.016729      0.016729     -0.031421
     1   0 0 1      0.008479      0.067505      0.067505     -0.126531

     2   2 0 0    -24.544136    -21.537341    -21.537341     18.530547
     2   1 1 0     -4.781366    -18.450650    -18.450650     32.119934
     2   1 0 1      0.178560      0.688881      0.688881     -1.199202
     2   0 2 0    -30.089009    -42.934259    -42.934259     55.779509
     2   0 1 1     -0.102691     -0.396868     -0.396868      0.691044
     2   0 0 2    -32.838997    -53.549339    -53.549339     74.259681

 Line search: 
     step= 1.00 grad=-1.1D-07 hess= 3.4D-08 energy=   -263.530875 mode=accept  
 new step= 1.00                   predicted energy=   -263.530875

          --------
          Step   5
          --------


                         Geometry "geometry" -> "geometry"
                         ---------------------------------

 Output coordinates in angstroms (scale by  1.889725989 to convert to a.u.)

  No.       Tag          Charge          X              Y              Z
 ---- ---------------- ---------- -------------- -------------- --------------
    1 C                    6.0000     0.00147964    -0.00056247    -0.00221744
    2 O                    8.0000    -0.02132101     0.00899898     1.31415367
    3 O                    8.0000     0.58202992     0.98268641    -0.65773541
    4 O                    8.0000    -0.55625555    -0.99334191    -0.66312482

      Atomic Mass 
      ----------- 

      C                 12.000000
      O                 15.994910


 Effective nuclear repulsion energy (a.u.)     102.4302866347

            Nuclear Dipole moment (a.u.) 
            ----------------------------
        X                 Y               Z
 ---------------- ---------------- ----------------
     0.0841017374    -0.0314205706    -0.1265306285


                                 NWChem DFT Module
                                 -----------------




 Summary of "ao basis" -> "ao basis" (cartesian)
 ------------------------------------------------------------------------------
       Tag                 Description            Shells   Functions and Types
 ---------------- ------------------------------  ------  ---------------------
 C                        aug-cc-pVTZ               14       55   5s4p3d2f
 O                        aug-cc-pVTZ               14       55   5s4p3d2f



  The DFT is already converged 

         Total DFT energy =   -263.530874909062


            General Information
            -------------------
          SCF calculation type: DFT
          Wavefunction type:  closed shell.
          No. of atoms     :     4
          No. of electrons :    32
           Alpha electrons :    16
            Beta electrons :    16
          Charge           :    -2
          Spin multiplicity:     1
          Use of symmetry is: off; symmetry adaption is: off
          Maximum number of iterations: 100
          AO basis - number of functions:   220
                     number of shells:    56
          Convergence on energy requested:  1.00D-06
          Convergence on density requested:  1.00D-05
          Convergence on gradient requested:  5.00D-04

              XC Information
              --------------
          PerdewBurkeErnzerhof Exchange Functional  1.000          
            Perdew 1991 LDA Correlation Functional  1.000 local    
           PerdewBurkeErnz. Correlation Functional  1.000 non-local

             Grid Information
             ----------------
          Grid used for XC integration:  medium    
          Radial quadrature: Mura-Knowles        
          Angular quadrature: Lebedev. 
          Tag              B.-S. Rad. Rad. Pts. Rad. Cut. Ang. Pts.
          ---              ---------- --------- --------- ---------
          C                   0.70       49          10.0       434
          O                   0.60       49          10.0       434
          Grid pruning is: on 
          Number of quadrature shells:   196
          Spatial weights used:  Erf1

          Convergence Information
          -----------------------
          Convergence aids based upon iterative change in 
          total energy or number of iterations. 
          Levelshifting, if invoked, occurs when the 
          HOMO/LUMO gap drops below (HL_TOL):  1.00D-02
          DIIS, if invoked, will attempt to extrapolate 
          using up to (NFOCK): 10 stored Fock matrices.

                    Damping(40%)  Levelshifting(0.0)       DIIS
                  --------------- ------------------- ---------------
          dE  on:    start            ASAP                start   
          dE off:  100 iters        100 iters           100 iters 


      Screening Tolerance Information
      -------------------------------
          Density screening/tol_rho:  1.00D-10
          AO Gaussian exp screening on grid/accAOfunc:  14
          CD Gaussian exp screening on grid/accCDfunc:  20
          XC Gaussian exp screening on grid/accXCfunc:  20
          Schwarz screening/accCoul:  1.00D-08



                            NWChem DFT Gradient Module
                            --------------------------



  charge          =  -2.00
  wavefunction    = closed shell



                         DFT ENERGY GRADIENTS

    atom               coordinates                        gradient
                 x          y          z           x          y          z
   1 C       0.002796  -0.001063  -0.004190   -0.000004  -0.000008   0.000016
   2 O      -0.040291   0.017006   2.483390    0.000001   0.000002   0.000001
   3 O       1.099877   1.857008  -1.242940    0.000006   0.000010  -0.000008
   4 O      -1.051171  -1.877144  -1.253124   -0.000002  -0.000004  -0.000009

                 ----------------------------------------
                 |  Time  |  1-e(secs)   |  2-e(secs)   |
                 ----------------------------------------
                 |  CPU   |       0.00   |       3.23   |
                 ----------------------------------------
                 |  WALL  |       0.00   |       3.25   |
                 ----------------------------------------

  Step       Energy      Delta E   Gmax     Grms     Xrms     Xmax   Walltime
  ---- ---------------- -------- -------- -------- -------- -------- --------
@    5    -263.53087491 -7.6D-08  0.00002  0.00001  0.00016  0.00037    129.1
                                     ok       ok       ok       ok  


      ----------------------
      Optimization converged
      ----------------------


  Step       Energy      Delta E   Gmax     Grms     Xrms     Xmax   Walltime
  ---- ---------------- -------- -------- -------- -------- -------- --------
@    5    -263.53087491 -7.6D-08  0.00002  0.00001  0.00016  0.00037    129.1
                                     ok       ok       ok       ok  



                         Geometry "geometry" -> "geometry"
                         ---------------------------------

 Output coordinates in angstroms (scale by  1.889725989 to convert to a.u.)

  No.       Tag          Charge          X              Y              Z
 ---- ---------------- ---------- -------------- -------------- --------------
    1 C                    6.0000     0.00147964    -0.00056247    -0.00221744
    2 O                    8.0000    -0.02132101     0.00899898     1.31415367
    3 O                    8.0000     0.58202992     0.98268641    -0.65773541
    4 O                    8.0000    -0.55625555    -0.99334191    -0.66312482

      Atomic Mass 
      ----------- 

      C                 12.000000
      O                 15.994910


 Effective nuclear repulsion energy (a.u.)     102.4302866347

            Nuclear Dipole moment (a.u.) 
            ----------------------------
        X                 Y               Z
 ---------------- ---------------- ----------------
     0.0841017374    -0.0314205706    -0.1265306285

 ==============================================================================
                                internuclear distances
 ------------------------------------------------------------------------------
       center one      |      center two      | atomic units |  angstroms
 ------------------------------------------------------------------------------
    2 O                |   1 C                |     2.48802  |     1.31660
    3 O                |   1 C                |     2.48807  |     1.31663
    4 O                |   1 C                |     2.48804  |     1.31662
 ------------------------------------------------------------------------------
                         number of included internuclear distances:          3
 ==============================================================================



 ==============================================================================
                                 internuclear angles
 ------------------------------------------------------------------------------
        center 1       |       center 2       |       center 3       |  degrees
 ------------------------------------------------------------------------------
    2 O                |   1 C                |   3 O                |   120.00
    2 O                |   1 C                |   4 O                |   120.00
    3 O                |   1 C                |   4 O                |   120.00
 ------------------------------------------------------------------------------
                            number of included internuclear angles:          3
 ==============================================================================




 Task  times  cpu:      125.3s     wall:      128.8s


                                NWChem Input Module
                                -------------------


 Summary of allocated global arrays
-----------------------------------
  No active global arrays


MA_summarize_allocated_blocks: starting scan ...
MA_summarize_allocated_blocks: scan completed: 0 heap blocks, 0 stack blocks
MA usage statistics:

	allocation statistics:
					      heap	     stack
					      ----	     -----
	current number of blocks	         0	         0
	maximum number of blocks	        24	        53
	current total bytes		         0	         0
	maximum total bytes		 268868640	  42583096
	maximum total K-bytes		    268869	     42584
	maximum total M-bytes		       269	        43


                                     CITATION
                                     --------
                Please cite the following reference when publishing
                           results obtained with NWChem:

          E. Apra, E. J. Bylaska, W. A. de Jong, N. Govind, K. Kowalski,
       T. P. Straatsma, M. Valiev, H. J. J. van Dam, Y. Alexeev, J. Anchell,
       V. Anisimov, F. W. Aquino, R. Atta-Fynn, J. Autschbach, N. P. Bauman,
     J. C. Becca, D. E. Bernholdt, K. Bhaskaran-Nair, S. Bogatko, P. Borowski,
         J. Boschen, J. Brabec, A. Bruner, E. Cauet, Y. Chen, G. N. Chuev,
      C. J. Cramer, J. Daily, M. J. O. Deegan, T. H. Dunning Jr., M. Dupuis,
   K. G. Dyall, G. I. Fann, S. A. Fischer, A. Fonari, H. Fruchtl, L. Gagliardi,
      J. Garza, N. Gawande, S. Ghosh, K. Glaesemann, A. W. Gotz, J. Hammond,
       V. Helms, E. D. Hermes, K. Hirao, S. Hirata, M. Jacquelin, L. Jensen,
   B. G. Johnson, H. Jonsson, R. A. Kendall, M. Klemm, R. Kobayashi, V. Konkov,
      S. Krishnamoorthy, M. Krishnan, Z. Lin, R. D. Lins, R. J. Littlefield,
      A. J. Logsdail, K. Lopata, W. Ma, A. V. Marenich, J. Martin del Campo,
   D. Mejia-Rodriguez, J. E. Moore, J. M. Mullin, T. Nakajima, D. R. Nascimento,
    J. A. Nichols, P. J. Nichols, J. Nieplocha, A. Otero-de-la-Roza, B. Palmer,
    A. Panyala, T. Pirojsirikul, B. Peng, R. Peverati, J. Pittner, L. Pollack,
   R. M. Richard, P. Sadayappan, G. C. Schatz, W. A. Shelton, D. W. Silverstein,
   D. M. A. Smith, T. A. Soares, D. Song, M. Swart, H. L. Taylor, G. S. Thomas,
            V. Tipparaju, D. G. Truhlar, K. Tsemekhman, T. Van Voorhis,
      A. Vazquez-Mayagoitia, P. Verma, O. Villa, A. Vishnu, K. D. Vogiatzis,
        D. Wang, J. H. Weare, M. J. Williamson, T. L. Windus, K. Wolinski,
        A. T. Wong, Q. Wu, C. Yang, Q. Yu, M. Zacharias, Z. Zhang, Y. Zhao,
                                and R. J. Harrison
                        "NWChem: Past, present, and future
                         J. Chem. Phys. 152, 184102 (2020)
                               doi:10.1063/5.0004997

                                      AUTHORS
                                      -------
  E. Apra, E. J. Bylaska, N. Govind, K. Kowalski, M. Valiev, D. Mejia-Rodriguez,
       A. Kunitsa, N. P. Bauman, A. Panyala, W. A. de Jong, T. P. Straatsma,
   H. J. J. van Dam, D. Wang, T. L. Windus, J. Hammond, J. Autschbach, A. Woods,
    K. Bhaskaran-Nair, J. Brabec, K. Lopata, S. A. Fischer, S. Krishnamoorthy,
     M. Jacquelin, W. Ma, M. Klemm, O. Villa, Y. Chen, V. Anisimov, F. Aquino,
     S. Hirata, M. T. Hackler, E. Hermes, L. Jensen, J. E. Moore, J. C. Becca,
      V. Konjkov, T. Risthaus, M. Malagoli, A. Marenich, A. Otero-de-la-Roza,
        J. Mullin, P. Nichols, R. Peverati, J. Pittner, Y. Zhao, P.-D. Fan,
        A. Fonari, M. J. Williamson, R. J. Harrison, J. R. Rehr, M. Dupuis,
     D. Silverstein, D. M. A. Smith, J. Nieplocha, V. Tipparaju, M. Krishnan,
     B. E. Van Kuiken, A. Vazquez-Mayagoitia, M. Swart, Q. Wu, T. Van Voorhis,
     A. A. Auer, M. Nooijen, L. D. Crosby, E. Brown, G. Cisneros, G. I. Fann,
   H. Fruchtl, J. Garza, K. Hirao, R. A. Kendall, J. A. Nichols, K. Tsemekhman,
    K. Wolinski, J. Anchell, D. E. Bernholdt, P. Borowski, T. Clark, D. Clerc,
   H. Dachsel, M. J. O. Deegan, K. Dyall, D. Elwood, E. Glendening, M. Gutowski,
   A. C. Hess, J. Jaffe, B. G. Johnson, J. Ju, R. Kobayashi, R. Kutteh, Z. Lin,
   R. Littlefield, X. Long, B. Meng, T. Nakajima, S. Niu, L. Pollack, M. Rosing,
   K. Glaesemann, G. Sandrone, M. Stave, H. Taylor, G. Thomas, J. H. van Lenthe,
                               A. T. Wong, Z. Zhang.

 Total times  cpu:      125.4s     wall:      129.2s
