 argument  1 = m1e/mol.nwi
                                         
                                         


             Northwest Computational Chemistry Package (NWChem) 7.2.2
             --------------------------------------------------------


                    Environmental Molecular Sciences Laboratory
                       Pacific Northwest National Laboratory
                                Richland, WA 99352

                              Copyright (c) 1994-2022
                       Pacific Northwest National Laboratory
                            Battelle Memorial Institute

             NWChem is an open-source computational chemistry package
                        distributed under the terms of the
                      Educational Community License (ECL) 2.0
             A copy of the license is included with this distribution
                              in the LICENSE.TXT file

                                  ACKNOWLEDGMENT
                                  --------------

            This software and its documentation were developed at the
            EMSL at Pacific Northwest National Laboratory, a multiprogram
            national laboratory, operated for the U.S. Department of Energy
            by Battelle under Contract Number DE-AC05-76RL01830. Support
            for this work was provided by the Department of Energy Office
            of Biological and Environmental Research, Office of Basic
            Energy Sciences, and the Office of Advanced Scientific Computing.


           Job information
           ---------------

    hostname        = r011.ib.bridges2.psc.edu
    program         = nwchem
    date            = Tue Oct  1 14:53:30 2024

    compiled        = Mon_Mar_18_17:03:37_2024
    source          = /ocean/projects/pscstaff/mmadrid/nwchem-7.2.2
    nwchem branch   = 7.2.2
    nwchem revision = 74936fb9
    ga revision     = 5.8.0
    use scalapack   = F
    input           = m1e/mol.nwi
    prefix          = dft.
    data base       = .//dft.db
    status          = startup
    nproc           =       15
    time left       =     -1s



           Memory information
           ------------------

    heap     =   67108864 doubles =    512.0 Mbytes
    stack    =   67108861 doubles =    512.0 Mbytes
    global   =  134217728 doubles =   1024.0 Mbytes (distinct from heap & stack)
    total    =  268435453 doubles =   2048.0 Mbytes
    verify   = yes
    hardfail = no 


           Directory information
           ---------------------

  0 permanent = ./
  0 scratch   = /jet/home/hmt47/nwchem_scratch/




                                NWChem Input Module
                                -------------------


  library name resolved from: environment
  library file name is: </opt/packages/nwchem/nwchem7.2.2/share/nwchem/libraries/>
  


 Summary of "ao basis" -> "" (cartesian)
 ------------------------------------------------------------------------------
       Tag                 Description            Shells   Functions and Types
 ---------------- ------------------------------  ------  ---------------------
 *                        aug-cc-pVTZ                 on all atoms 


  pbe96 is a nonlocal functional; adding pw91lda local functional. 

 Scaling coordinates for geometry "geometry" by  1.889725989
 (inverse scale =  0.529177249)



                             Geometry "geometry" -> ""
                             -------------------------

 Output coordinates in angstroms (scale by  1.889725989 to convert to a.u.)

  No.       Tag          Charge          X              Y              Z
 ---- ---------------- ---------- -------------- -------------- --------------
    1 C                    6.0000     0.00000000     0.00000000     0.00000000
    2 C                    6.0000    -0.01229800     0.05519700     1.53257600
    3 O                    8.0000     0.57528900     0.99475600    -0.53924100
    4 O                    8.0000    -0.55469800    -1.00122000    -0.53787100
    5 H                    1.0000     0.50819500     0.95555600     1.88313300
    6 Cl                  17.0000    -1.70623400     0.14571600     2.08863800
    7 Cl                  17.0000     0.84330200    -1.36727000     2.18333800

      Atomic Mass 
      ----------- 

      C                 12.000000
      O                 15.994910
      H                  1.007825
      Cl                34.968850


 Effective nuclear repulsion energy (a.u.)     342.3524232536

            Nuclear Dipole moment (a.u.) 
            ----------------------------
        X                 Y               Z
 ---------------- ---------------- ----------------
   -26.5897844750   -36.9089790555   141.8906144244


            XYZ format geometry
            -------------------
     7
 geometry
 C                     0.00000000     0.00000000     0.00000000
 C                    -0.01229800     0.05519700     1.53257600
 O                     0.57528900     0.99475600    -0.53924100
 O                    -0.55469800    -1.00122000    -0.53787100
 H                     0.50819500     0.95555600     1.88313300
 Cl                   -1.70623400     0.14571600     2.08863800
 Cl                    0.84330200    -1.36727000     2.18333800

 ==============================================================================
                                internuclear distances
 ------------------------------------------------------------------------------
       center one      |      center two      | atomic units |  angstroms
 ------------------------------------------------------------------------------
    2 C                |   1 C                |     2.89812  |     1.53362
    3 O                |   1 C                |     2.39874  |     1.26936
    4 O                |   1 C                |     2.38991  |     1.26469
    5 H                |   2 C                |     2.07393  |     1.09747
    6 Cl               |   2 C                |     3.37347  |     1.78517
    7 Cl               |   2 C                |     3.36931  |     1.78296
 ------------------------------------------------------------------------------
                         number of included internuclear distances:          6
 ==============================================================================



 ==============================================================================
                                 internuclear angles
 ------------------------------------------------------------------------------
        center 1       |       center 2       |       center 3       |  degrees
 ------------------------------------------------------------------------------
    2 C                |   1 C                |   3 O                |   113.58
    2 C                |   1 C                |   4 O                |   116.74
    3 O                |   1 C                |   4 O                |   129.68
    1 C                |   2 C                |   5 H                |   110.18
    1 C                |   2 C                |   6 Cl               |   108.71
    1 C                |   2 C                |   7 Cl               |   109.40
    5 H                |   2 C                |   6 Cl               |   107.99
    5 H                |   2 C                |   7 Cl               |   108.08
    6 Cl               |   2 C                |   7 Cl               |   112.46
 ------------------------------------------------------------------------------
                            number of included internuclear angles:          9
 ==============================================================================





                           NWChem Geometry Optimization
                           ----------------------------


 maximum gradient threshold         (gmax) =   0.000450
 rms gradient threshold             (grms) =   0.000300
 maximum cartesian step threshold   (xmax) =   0.001800
 rms cartesian step threshold       (xrms) =   0.001200
 fixed trust radius                (trust) =   0.300000
 maximum step size to saddle      (sadstp) =   0.100000
 energy precision                  (eprec) =   5.0D-06
 maximum number of steps          (nptopt) =   40
 initial hessian option           (inhess) =    0
 line search option               (linopt) =    1
 hessian update option            (modupd) =    1
 saddle point option              (modsad) =    0
 initial eigen-mode to follow     (moddir) =    0
 initial variable to follow       (vardir) =    0
 follow first negative mode     (firstneg) =    T
 apply conjugacy                    (opcg) =    F
 source of zmatrix                         =           


          -------------------
          Energy Minimization
          -------------------


 Using diagonal initial Hessian 

          --------
          Step   0
          --------


                         Geometry "geometry" -> "geometry"
                         ---------------------------------

 Output coordinates in angstroms (scale by  1.889725989 to convert to a.u.)

  No.       Tag          Charge          X              Y              Z
 ---- ---------------- ---------- -------------- -------------- --------------
    1 C                    6.0000     0.00000000     0.00000000     0.00000000
    2 C                    6.0000    -0.01229800     0.05519700     1.53257600
    3 O                    8.0000     0.57528900     0.99475600    -0.53924100
    4 O                    8.0000    -0.55469800    -1.00122000    -0.53787100
    5 H                    1.0000     0.50819500     0.95555600     1.88313300
    6 Cl                  17.0000    -1.70623400     0.14571600     2.08863800
    7 Cl                  17.0000     0.84330200    -1.36727000     2.18333800

      Atomic Mass 
      ----------- 

      C                 12.000000
      O                 15.994910
      H                  1.007825
      Cl                34.968850


 Effective nuclear repulsion energy (a.u.)     342.3524232536

            Nuclear Dipole moment (a.u.) 
            ----------------------------
        X                 Y               Z
 ---------------- ---------------- ----------------
   -26.5897844750   -36.9089790555   141.8906144244


                                 NWChem DFT Module
                                 -----------------


                      Basis "ao basis" -> "ao basis" (cartesian)
                      -----
  C (Carbon)
  ----------
            Exponent  Coefficients 
       -------------- ---------------------------------------------------------
  1 S  8.23600000E+03  0.000531
  1 S  1.23500000E+03  0.004108
  1 S  2.80800000E+02  0.021087
  1 S  7.92700000E+01  0.081853
  1 S  2.55900000E+01  0.234817
  1 S  8.99700000E+00  0.434401
  1 S  3.31900000E+00  0.346129
  1 S  3.64300000E-01 -0.008983

  2 S  8.23600000E+03 -0.000113
  2 S  1.23500000E+03 -0.000878
  2 S  2.80800000E+02 -0.004540
  2 S  7.92700000E+01 -0.018133
  2 S  2.55900000E+01 -0.055760
  2 S  8.99700000E+00 -0.126895
  2 S  3.31900000E+00 -0.170352
  2 S  3.64300000E-01  0.598684

  3 S  9.05900000E-01  1.000000

  4 S  1.28500000E-01  1.000000

  5 S  4.40200000E-02  1.000000

  6 P  1.87100000E+01  0.014031
  6 P  4.13300000E+00  0.086866
  6 P  1.20000000E+00  0.290216

  7 P  3.82700000E-01  1.000000

  8 P  1.20900000E-01  1.000000

  9 P  3.56900000E-02  1.000000

 10 D  1.09700000E+00  1.000000

 11 D  3.18000000E-01  1.000000

 12 D  1.00000000E-01  1.000000

 13 F  7.61000000E-01  1.000000

 14 F  2.68000000E-01  1.000000

  O (Oxygen)
  ----------
            Exponent  Coefficients 
       -------------- ---------------------------------------------------------
  1 S  1.53300000E+04  0.000508
  1 S  2.29900000E+03  0.003929
  1 S  5.22400000E+02  0.020243
  1 S  1.47300000E+02  0.079181
  1 S  4.75500000E+01  0.230687
  1 S  1.67600000E+01  0.433118
  1 S  6.20700000E+00  0.350260
  1 S  6.88200000E-01 -0.008154

  2 S  1.53300000E+04 -0.000115
  2 S  2.29900000E+03 -0.000895
  2 S  5.22400000E+02 -0.004636
  2 S  1.47300000E+02 -0.018724
  2 S  4.75500000E+01 -0.058463
  2 S  1.67600000E+01 -0.136463
  2 S  6.20700000E+00 -0.175740
  2 S  6.88200000E-01  0.603418

  3 S  1.75200000E+00  1.000000

  4 S  2.38400000E-01  1.000000

  5 S  7.37600000E-02  1.000000

  6 P  3.44600000E+01  0.015928
  6 P  7.74900000E+00  0.099740
  6 P  2.28000000E+00  0.310492

  7 P  7.15600000E-01  1.000000

  8 P  2.14000000E-01  1.000000

  9 P  5.97400000E-02  1.000000

 10 D  2.31400000E+00  1.000000

 11 D  6.45000000E-01  1.000000

 12 D  2.14000000E-01  1.000000

 13 F  1.42800000E+00  1.000000

 14 F  5.00000000E-01  1.000000

  H (Hydrogen)
  ------------
            Exponent  Coefficients 
       -------------- ---------------------------------------------------------
  1 S  3.38700000E+01  0.006068
  1 S  5.09500000E+00  0.045308
  1 S  1.15900000E+00  0.202822

  2 S  3.25800000E-01  1.000000

  3 S  1.02700000E-01  1.000000

  4 S  2.52600000E-02  1.000000

  5 P  1.40700000E+00  1.000000

  6 P  3.88000000E-01  1.000000

  7 P  1.02000000E-01  1.000000

  8 D  1.05700000E+00  1.000000

  9 D  2.47000000E-01  1.000000

  Cl (Chlorine)
  -------------
            Exponent  Coefficients 
       -------------- ---------------------------------------------------------
  1 S  4.56100000E+05  0.000049
  1 S  6.83300000E+04  0.000383
  1 S  1.55500000E+04  0.002009
  1 S  4.40500000E+03  0.008386
  1 S  1.43900000E+03  0.029470
  1 S  5.20400000E+02  0.087833
  1 S  2.03100000E+02  0.211473
  1 S  8.39600000E+01  0.365364
  1 S  3.62000000E+01  0.340884
  1 S  1.58300000E+01  0.102133
  1 S  6.33400000E+00  0.003117
  1 S  2.69400000E+00  0.001058
  1 S  4.31300000E-01  0.000156

  2 S  4.56100000E+05 -0.000014
  2 S  6.83300000E+04 -0.000107
  2 S  1.55500000E+04 -0.000565
  2 S  4.40500000E+03 -0.002361
  2 S  1.43900000E+03 -0.008459
  2 S  5.20400000E+02 -0.025964
  2 S  2.03100000E+02 -0.068636
  2 S  8.39600000E+01 -0.141874
  2 S  3.62000000E+01 -0.199319
  2 S  1.58300000E+01 -0.019566
  2 S  6.33400000E+00  0.499741
  2 S  2.69400000E+00  0.563736
  2 S  4.31300000E-01 -0.008351

  3 S  4.56100000E+05  0.000004
  3 S  6.83300000E+04  0.000032
  3 S  1.55500000E+04  0.000171
  3 S  4.40500000E+03  0.000714
  3 S  1.43900000E+03  0.002567
  3 S  5.20400000E+02  0.007886
  3 S  2.03100000E+02  0.021087
  3 S  8.39600000E+01  0.044226
  3 S  3.62000000E+01  0.065167
  3 S  1.58300000E+01  0.006030
  3 S  6.33400000E+00 -0.206495
  3 S  2.69400000E+00 -0.405871
  3 S  4.31300000E-01  0.725661

  4 S  9.76800000E-01  1.000000

  5 S  1.62500000E-01  1.000000

  6 S  5.91000000E-02  1.000000

  7 P  6.63300000E+02  0.002404
  7 P  1.56800000E+02  0.019215
  7 P  4.99800000E+01  0.088510
  7 P  1.84200000E+01  0.256020
  7 P  7.24000000E+00  0.436927
  7 P  2.92200000E+00  0.350334
  7 P  3.81800000E-01 -0.004584

  8 P  6.63300000E+02 -0.000652
  8 P  1.56800000E+02 -0.005194
  8 P  4.99800000E+01 -0.024694
  8 P  1.84200000E+01 -0.072817
  8 P  7.24000000E+00 -0.134030
  8 P  2.92200000E+00 -0.094774
  8 P  3.81800000E-01  0.564667

  9 P  1.02200000E+00  1.000000

 10 P  1.30100000E-01  1.000000

 11 P  4.19000000E-02  1.000000

 12 D  1.04600000E+00  1.000000

 13 D  3.44000000E-01  1.000000

 14 D  1.35000000E-01  1.000000

 15 F  7.06000000E-01  1.000000

 16 F  3.12000000E-01  1.000000



 Summary of "ao basis" -> "ao basis" (cartesian)
 ------------------------------------------------------------------------------
       Tag                 Description            Shells   Functions and Types
 ---------------- ------------------------------  ------  ---------------------
 C                        aug-cc-pVTZ               14       55   5s4p3d2f
 O                        aug-cc-pVTZ               14       55   5s4p3d2f
 H                        aug-cc-pVTZ                9       25   4s3p2d
 Cl                       aug-cc-pVTZ               16       59   6s5p3d2f




 Summary of "ao basis" -> "ao basis" (cartesian)
 ------------------------------------------------------------------------------
       Tag                 Description            Shells   Functions and Types
 ---------------- ------------------------------  ------  ---------------------
 C                        aug-cc-pVTZ               14       55   5s4p3d2f
 O                        aug-cc-pVTZ               14       55   5s4p3d2f
 H                        aug-cc-pVTZ                9       25   4s3p2d
 Cl                       aug-cc-pVTZ               16       59   6s5p3d2f


  Caching 1-el integrals 

            General Information
            -------------------
          SCF calculation type: DFT
          Wavefunction type:  closed shell.
          No. of atoms     :     7
          No. of electrons :    64
           Alpha electrons :    32
            Beta electrons :    32
          Charge           :    -1
          Spin multiplicity:     1
          Use of symmetry is: off; symmetry adaption is: off
          Maximum number of iterations: 200
          AO basis - number of functions:   363
                     number of shells:    97
          Convergence on energy requested:  1.00D-06
          Convergence on density requested:  1.00D-05
          Convergence on gradient requested:  5.00D-04

              XC Information
              --------------
          PerdewBurkeErnzerhof Exchange Functional  1.000          
            Perdew 1991 LDA Correlation Functional  1.000 local    
           PerdewBurkeErnz. Correlation Functional  1.000 non-local

             Grid Information
             ----------------
          Grid used for XC integration:  medium    
          Radial quadrature: Mura-Knowles        
          Angular quadrature: Lebedev. 
          Tag              B.-S. Rad. Rad. Pts. Rad. Cut. Ang. Pts.
          ---              ---------- --------- --------- ---------
          C                   0.70       49          13.0       434
          O                   0.60       49          14.0       434
          H                   0.35       45          13.0       434
          Cl                  1.00       88          13.0       590
          Grid pruning is: on 
          Number of quadrature shells:   417
          Spatial weights used:  Erf1

          Convergence Information
          -----------------------
          Convergence aids based upon iterative change in 
          total energy or number of iterations. 
          Levelshifting, if invoked, occurs when the 
          HOMO/LUMO gap drops below (HL_TOL):  1.00D-02
          DIIS, if invoked, will attempt to extrapolate 
          using up to (NFOCK): 10 stored Fock matrices.

                    Damping(40%)  Levelshifting(0.0)       DIIS
                  --------------- ------------------- ---------------
          dE  on:    start            0.00D+00            start   
          dE off:  200 iters          0.00D+00          200 iters 


      Screening Tolerance Information
      -------------------------------
          Density screening/tol_rho:  1.00D-10
          AO Gaussian exp screening on grid/accAOfunc:  14
          CD Gaussian exp screening on grid/accCDfunc:  20
          XC Gaussian exp screening on grid/accXCfunc:  20
          Schwarz screening/accCoul:  1.00D-08


 Forcing the number of linearly dependent vectors to be  0

      Superposition of Atomic Density Guess
      -------------------------------------

 Sum of atomic energies:       -1144.37689069
   Time after variat. SCF:      0.6
   Time prior to 1st pass:      0.6

 Grid_pts file          = /jet/home/hmt47/nwchem_scratch//dft.gridpts.00
 Record size in doubles =  12289        No. of grid_pts per rec  =   3070
 Max. records in memory =      7        Max. recs in file   =  67550051

 Grid integrated density:      62.999997657100
 Requested integration accuracy:   0.10E-05

           Memory utilization after 1st SCF pass: 
           Heap Space remaining (MW):       33.46            33458752
          Stack Space remaining (MW):       67.11            67106940

   convergence    iter        energy       DeltaE   RMS-Dens  Diis-err    time
 ---------------- ----- ----------------- --------- --------- ---------  ------
 d=40,ls=0.0,diis     1  -1147.9655253501 -1.49D+03  8.93D-03  4.50D+01     2.2
 Grid integrated density:      63.599999784405
 Requested integration accuracy:   0.10E-05
 d=40,ls=0.0,diis     2  -1147.5250847459  4.40D-01  4.67D-01  7.42D+00    10.4
 Grid integrated density:      63.840008374452
 Requested integration accuracy:   0.10E-05
 d=40,ls=0.0,diis     3  -1144.5034541355  3.02D+00  2.79D-01  9.47D+00    18.9
 Grid integrated density:      63.936003950041
 Requested integration accuracy:   0.10E-05
 d=40,ls=0.0,diis     4  -1146.8427894886 -2.34D+00  1.12D-01  8.83D-01    27.3
 Grid integrated density:      63.974402033168
 Requested integration accuracy:   0.10E-05
 d=40,ls=0.0,diis     5  -1147.1607458495 -3.18D-01  4.47D-02  4.01D-02    35.6
 Grid integrated density:      63.989761122915
 Requested integration accuracy:   0.10E-05
 d=40,ls=0.0,diis     6  -1147.2183738486 -5.76D-02  1.79D-02  4.90D-02    43.8
 Grid integrated density:      63.995904917028
 Requested integration accuracy:   0.10E-05
  Resetting Diis
 d=40,ls=0.0,diis     7  -1147.2330565232 -1.47D-02  7.06D-03  9.53D-02    52.3
 Grid integrated density:      63.998362332222
 Requested integration accuracy:   0.10E-05
 d=40,ls=0.0,diis     8  -1147.2469860734 -1.39D-02  3.42D-03  5.01D-02    60.6
 Grid integrated density:      63.999344424760
 Requested integration accuracy:   0.10E-05
 d=40,ls=0.0,diis     9  -1147.2453242032  1.66D-03  1.53D-03  6.98D-02    68.9
 Grid integrated density:      63.999737788942
 Requested integration accuracy:   0.10E-05
 d=40,ls=0.0,diis    10  -1147.2549780717 -9.65D-03  7.29D-04  1.07D-02    77.1
 Grid integrated density:      63.999895221436
 Requested integration accuracy:   0.10E-05
 d=40,ls=0.0,diis    11  -1147.2579223501 -2.94D-03  3.04D-04  2.01D-03    85.5
 d=40,ls=0.0,diis    12  -1147.2589822317 -1.06D-03  1.41D-04  3.55D-04    93.8
 d=40,ls=0.0,diis    13  -1147.2593843338 -4.02D-04  7.26D-05  4.97D-05   102.1
 d=40,ls=0.0,diis    14  -1147.2595399868 -1.56D-04  3.65D-05  6.85D-06   110.3
 d=40,ls=0.0,diis    15  -1147.2596015259 -6.15D-05  1.60D-05  1.04D-06   118.6
 d=40,ls=0.0,diis    16  -1147.2596260540 -2.45D-05  1.28D-05  1.75D-07   127.0
 d=40,ls=0.0,diis    17  -1147.2596358400 -9.79D-06  3.87D-06  3.05D-08   135.3
 d=40,ls=0.0,diis    18  -1147.2596397622 -3.92D-06  2.73D-06  5.52D-09   143.7
 d=40,ls=0.0,diis    19  -1147.2596413300 -1.57D-06  1.24D-06  2.28D-09   152.0
 d=40,ls=0.0,diis    20  -1147.2596419486 -6.19D-07  1.25D-06  5.13D-10   160.4


         Total DFT energy =    -1147.259641948639
      One electron energy =    -2274.633644348500
           Coulomb energy =      869.436871744900
    Exchange-Corr. energy =      -84.415292598641
 Nuclear repulsion energy =      342.352423253602

 Numeric. integr. density =       64.000000102965

     Total iterative time =    159.8s



                       DFT Final Molecular Orbital Analysis
                       ------------------------------------

 Vector    1  Occ=2.000000D+00  E=-1.005614D+02
              MO Center=  8.4D-01, -1.4D+00,  2.2D+00, r^2= 5.8D-03
   Bfn.  Coefficient  Atom+Function         Bfn.  Coefficient  Atom+Function  
  ----- ------------  ---------------      ----- ------------  ---------------
   305      1.001995  7 Cl s                309     -0.043881  7 Cl s          
    59     -0.028695  2 C  s          

 Vector    2  Occ=2.000000D+00  E=-1.005612D+02
              MO Center= -1.7D+00,  1.5D-01,  2.1D+00, r^2= 5.8D-03
   Bfn.  Coefficient  Atom+Function         Bfn.  Coefficient  Atom+Function  
  ----- ------------  ---------------      ----- ------------  ---------------
   246      1.001982  6 Cl s                250     -0.044036  6 Cl s          
    59     -0.026779  2 C  s          

 Vector    3  Occ=2.000000D+00  E=-1.853451D+01
              MO Center=  5.8D-01,  9.9D-01, -5.4D-01, r^2= 1.5D-02
   Bfn.  Coefficient  Atom+Function         Bfn.  Coefficient  Atom+Function  
  ----- ------------  ---------------      ----- ------------  ---------------
   111      0.982245  3 O  s                 59      0.088329  2 C  s          
   223     -0.074977  5 H  s                113      0.067438  3 O  s          
     4     -0.048389  1 C  s                 14      0.046989  1 C  pz         
    13     -0.043891  1 C  py               169      0.035542  4 O  s          
   114     -0.034365  3 O  s                 50      0.032583  1 C  fxyz       

 Vector    4  Occ=2.000000D+00  E=-1.852605D+01
              MO Center= -5.5D-01, -1.0D+00, -5.4D-01, r^2= 1.5D-02
   Bfn.  Coefficient  Atom+Function         Bfn.  Coefficient  Atom+Function  
  ----- ------------  ---------------      ----- ------------  ---------------
   166      0.983205  4 O  s                 59     -0.132739  2 C  s          
   168      0.068293  4 O  s                 14      0.057928  1 C  pz         
   169     -0.043669  4 O  s                114      0.041642  3 O  s          
    86      0.040245  2 C  dxy               54     -0.039034  1 C  fyzz       
    69      0.038016  2 C  pz                50      0.036433  1 C  fxyz       

 Vector    5  Occ=2.000000D+00  E=-9.844068D+00
              MO Center= -1.2D-02,  5.5D-02,  1.5D+00, r^2= 2.8D-02
   Bfn.  Coefficient  Atom+Function         Bfn.  Coefficient  Atom+Function  
  ----- ------------  ---------------      ----- ------------  ---------------
    56      1.012993  2 C  s                 59     -0.133206  2 C  s          
    57      0.085984  2 C  s                 58      0.065732  2 C  s          
     4      0.047221  1 C  s                 68     -0.036573  2 C  py         
   222     -0.030292  5 H  s                 65      0.027855  2 C  py         
    60     -0.027613  2 C  s          

 Vector    6  Occ=2.000000D+00  E=-9.801348D+00
              MO Center=  4.2D-06,  8.3D-06,  1.3D-05, r^2= 2.8D-02
   Bfn.  Coefficient  Atom+Function         Bfn.  Coefficient  Atom+Function  
  ----- ------------  ---------------      ----- ------------  ---------------
     1      1.012390  1 C  s                  4     -0.087933  1 C  s          
     2      0.084790  1 C  s                 59      0.077958  2 C  s          
     3      0.067680  1 C  s                169     -0.055885  4 O  s          
   114     -0.049791  3 O  s                 69     -0.048662  2 C  pz         
    33     -0.033702  1 C  dyy               27      0.033411  1 C  dyy        

 Vector    7  Occ=2.000000D+00  E=-9.045536D+00
              MO Center=  8.4D-01, -1.4D+00,  2.2D+00, r^2= 6.6D-02
   Bfn.  Coefficient  Atom+Function         Bfn.  Coefficient  Atom+Function  
  ----- ------------  ---------------      ----- ------------  ---------------
   306      0.899348  7 Cl s                308      0.112323  7 Cl s          
    59      0.038322  2 C  s                307     -0.030889  7 Cl s          
   223     -0.025355  5 H  s          

 Vector    8  Occ=2.000000D+00  E=-9.045336D+00
              MO Center= -1.7D+00,  1.5D-01,  2.1D+00, r^2= 6.6D-02
   Bfn.  Coefficient  Atom+Function         Bfn.  Coefficient  Atom+Function  
  ----- ------------  ---------------      ----- ------------  ---------------
   247      0.899392  6 Cl s                249      0.112338  6 Cl s          
    59      0.037035  2 C  s                248     -0.030829  6 Cl s          

 Vector    9  Occ=2.000000D+00  E=-6.870982D+00
              MO Center=  8.4D-01, -1.4D+00,  2.2D+00, r^2= 6.4D-02
   Bfn.  Coefficient  Atom+Function         Bfn.  Coefficient  Atom+Function  
  ----- ------------  ---------------      ----- ------------  ---------------
   312      0.814662  7 Cl py               311     -0.512250  7 Cl px         
   313     -0.361037  7 Cl pz                59     -0.113192  2 C  s          
   315      0.098455  7 Cl py               314     -0.061845  7 Cl px         
   316     -0.046035  7 Cl pz               321      0.042375  7 Cl py         
   352     -0.035149  7 Cl fyzz             345     -0.034605  7 Cl fxxy       

 Vector   10  Occ=2.000000D+00  E=-6.870798D+00
              MO Center= -1.7D+00,  1.4D-01,  2.1D+00, r^2= 6.4D-02
   Bfn.  Coefficient  Atom+Function         Bfn.  Coefficient  Atom+Function  
  ----- ------------  ---------------      ----- ------------  ---------------
   252      0.978536  6 Cl px               254     -0.304526  6 Cl pz         
   255      0.117239  6 Cl px                59     -0.106207  2 C  s          
   253     -0.069792  6 Cl py               261      0.048296  6 Cl px         
   288     -0.042925  6 Cl fxyy             290     -0.042214  6 Cl fxzz       
   285     -0.040836  6 Cl fxxx             257     -0.038751  6 Cl pz         

 Vector   11  Occ=2.000000D+00  E=-6.860913D+00
              MO Center=  8.4D-01, -1.4D+00,  2.2D+00, r^2= 5.8D-02
   Bfn.  Coefficient  Atom+Function         Bfn.  Coefficient  Atom+Function  
  ----- ------------  ---------------      ----- ------------  ---------------
   311      0.816303  7 Cl px               313     -0.510627  7 Cl pz         
   312      0.288843  7 Cl py               314      0.061981  7 Cl px         
   316     -0.039949  7 Cl pz               317      0.036187  7 Cl px         
   349     -0.025294  7 Cl fxzz             344     -0.025013  7 Cl fxxx       

 Vector   12  Occ=2.000000D+00  E=-6.860701D+00
              MO Center= -1.7D+00,  1.5D-01,  2.1D+00, r^2= 5.8D-02
   Bfn.  Coefficient  Atom+Function         Bfn.  Coefficient  Atom+Function  
  ----- ------------  ---------------      ----- ------------  ---------------
   253      0.836654  6 Cl py               254     -0.546576  6 Cl pz         
   252     -0.108983  6 Cl px               256      0.064307  6 Cl py         
   257     -0.042658  6 Cl pz               259      0.036859  6 Cl py         
    86      0.030748  2 C  dxy              291     -0.026031  6 Cl fyyy       
   293     -0.025962  6 Cl fyzz             286     -0.025503  6 Cl fxxy       

 Vector   13  Occ=2.000000D+00  E=-6.860225D+00
              MO Center=  8.4D-01, -1.4D+00,  2.2D+00, r^2= 5.8D-02
   Bfn.  Coefficient  Atom+Function         Bfn.  Coefficient  Atom+Function  
  ----- ------------  ---------------      ----- ------------  ---------------
   313      0.791945  7 Cl pz               312      0.539762  7 Cl py         
   311      0.304264  7 Cl px               316      0.062141  7 Cl pz         
   315      0.040145  7 Cl py                 4      0.038897  1 C  s          
   319      0.034443  7 Cl pz               223     -0.031642  5 H  s          

 Vector   14  Occ=2.000000D+00  E=-6.860029D+00
              MO Center= -1.7D+00,  1.5D-01,  2.1D+00, r^2= 5.8D-02
   Bfn.  Coefficient  Atom+Function         Bfn.  Coefficient  Atom+Function  
  ----- ------------  ---------------      ----- ------------  ---------------
   254      0.790425  6 Cl pz               253      0.553151  6 Cl py         
   252      0.283295  6 Cl px               257      0.061874  6 Cl pz         
   256      0.042862  6 Cl py                 4      0.038077  1 C  s          
   260      0.034447  6 Cl pz               223     -0.032028  5 H  s          

 Vector   15  Occ=2.000000D+00  E=-7.663702D-01
              MO Center=  1.9D-02,  2.6D-02, -2.4D-01, r^2= 1.3D+00
   Bfn.  Coefficient  Atom+Function         Bfn.  Coefficient  Atom+Function  
  ----- ------------  ---------------      ----- ------------  ---------------
   112      0.282282  3 O  s                  2      0.275827  1 C  s          
   167      0.264507  4 O  s                114      0.169976  3 O  s          
   169      0.141345  4 O  s                 59      0.119495  2 C  s          
    57      0.088337  2 C  s                115      0.087292  3 O  s          
   113      0.079542  3 O  s                  3      0.078319  1 C  s          

 Vector   16  Occ=2.000000D+00  E=-6.846293D-01
              MO Center=  1.6D-02,  2.0D-02, -2.3D-01, r^2= 1.7D+00
   Bfn.  Coefficient  Atom+Function         Bfn.  Coefficient  Atom+Function  
  ----- ------------  ---------------      ----- ------------  ---------------
   112      0.335880  3 O  s                167     -0.308102  4 O  s          
   114      0.279735  3 O  s                169     -0.267243  4 O  s          
     7      0.137196  1 C  py               113      0.092650  3 O  s          
   307     -0.088832  7 Cl s                248     -0.086704  6 Cl s          
   168     -0.085037  4 O  s                  6      0.077914  1 C  px         

 Vector   17  Occ=2.000000D+00  E=-6.693602D-01
              MO Center= -3.0D-01, -4.2D-01,  1.7D+00, r^2= 2.5D+00
   Bfn.  Coefficient  Atom+Function         Bfn.  Coefficient  Atom+Function  
  ----- ------------  ---------------      ----- ------------  ---------------
   307      0.328248  7 Cl s                248      0.325935  6 Cl s          
    59      0.249751  2 C  s                 57      0.226213  2 C  s          
   309      0.206192  7 Cl s                250      0.204666  6 Cl s          
   167     -0.166764  4 O  s                169     -0.123253  4 O  s          
   223     -0.070109  5 H  s                222      0.066213  5 H  s          

 Vector   18  Occ=2.000000D+00  E=-6.069453D-01
              MO Center= -3.8D-01, -5.2D-01,  2.1D+00, r^2= 2.7D+00
   Bfn.  Coefficient  Atom+Function         Bfn.  Coefficient  Atom+Function  
  ----- ------------  ---------------      ----- ------------  ---------------
   248      0.431469  6 Cl s                307     -0.429235  7 Cl s          
   250      0.299607  6 Cl s                309     -0.298747  7 Cl s          
    61     -0.070994  2 C  px                64     -0.053020  2 C  px         
   251      0.049338  6 Cl s                310     -0.048551  7 Cl s          
    62      0.042094  2 C  py               249      0.041655  6 Cl s          

 Vector   19  Occ=2.000000D+00  E=-4.551364D-01
              MO Center= -1.2D-01, -1.1D-01,  1.5D+00, r^2= 2.9D+00
   Bfn.  Coefficient  Atom+Function         Bfn.  Coefficient  Atom+Function  
  ----- ------------  ---------------      ----- ------------  ---------------
    57      0.317867  2 C  s                 59      0.309345  2 C  s          
   248     -0.261730  6 Cl s                307     -0.261207  7 Cl s          
   250     -0.220206  6 Cl s                309     -0.220579  7 Cl s          
   222      0.109859  5 H  s                  8      0.108020  1 C  pz         
    11      0.103560  1 C  pz               112     -0.102321  3 O  s          

 Vector   20  Occ=2.000000D+00  E=-3.155216D-01
              MO Center= -3.6D-02, -1.6D-02,  1.1D+00, r^2= 2.5D+00
   Bfn.  Coefficient  Atom+Function         Bfn.  Coefficient  Atom+Function  
  ----- ------------  ---------------      ----- ------------  ---------------
     2      0.210335  1 C  s                 63     -0.202298  2 C  pz         
    59     -0.200519  2 C  s                 66     -0.155339  2 C  pz         
   167     -0.140647  4 O  s                222     -0.137132  5 H  s          
     4      0.117681  1 C  s                 11      0.118081  1 C  pz         
     8      0.117444  1 C  pz               112     -0.105877  3 O  s          

 Vector   21  Occ=2.000000D+00  E=-2.737753D-01
              MO Center= -9.6D-02, -7.7D-02,  1.7D+00, r^2= 2.9D+00
   Bfn.  Coefficient  Atom+Function         Bfn.  Coefficient  Atom+Function  
  ----- ------------  ---------------      ----- ------------  ---------------
    59      0.255020  2 C  s                 62     -0.188358  2 C  py         
    65     -0.159596  2 C  py               314     -0.148349  7 Cl px         
   222     -0.137042  5 H  s                255      0.124658  6 Cl px         
   317     -0.122012  7 Cl px               221     -0.114301  5 H  s          
    61     -0.112704  2 C  px               258      0.112535  6 Cl px         

 Vector   22  Occ=2.000000D+00  E=-2.678062D-01
              MO Center= -3.1D-01, -4.2D-01,  1.8D+00, r^2= 3.3D+00
   Bfn.  Coefficient  Atom+Function         Bfn.  Coefficient  Atom+Function  
  ----- ------------  ---------------      ----- ------------  ---------------
    61      0.170831  2 C  px               255     -0.163505  6 Cl px         
   258     -0.158219  6 Cl px               315      0.153671  7 Cl py         
    64      0.146175  2 C  px               318      0.144213  7 Cl py         
   250      0.120515  6 Cl s                309     -0.119620  7 Cl s          
   248      0.117188  6 Cl s                307     -0.116176  7 Cl s          

 Vector   23  Occ=2.000000D+00  E=-2.191435D-01
              MO Center=  4.1D-02,  6.7D-02, -2.0D-01, r^2= 2.8D+00
   Bfn.  Coefficient  Atom+Function         Bfn.  Coefficient  Atom+Function  
  ----- ------------  ---------------      ----- ------------  ---------------
     2      0.191159  1 C  s                  4      0.190750  1 C  s          
   169     -0.190971  4 O  s                117     -0.176007  3 O  py         
   114     -0.170854  3 O  s                112     -0.168158  3 O  s          
   120     -0.164238  3 O  py                 8     -0.151957  1 C  pz         
   172      0.151968  4 O  py               167     -0.149172  4 O  s          

 Vector   24  Occ=2.000000D+00  E=-1.785801D-01
              MO Center= -9.0D-02, -1.7D-01, -3.3D-01, r^2= 2.8D+00
   Bfn.  Coefficient  Atom+Function         Bfn.  Coefficient  Atom+Function  
  ----- ------------  ---------------      ----- ------------  ---------------
    59      0.194815  2 C  s                  7      0.177011  1 C  py         
   172     -0.169646  4 O  py               223     -0.164121  5 H  s          
   175     -0.160990  4 O  py               167      0.147107  4 O  s          
   117     -0.135744  3 O  py               118      0.132500  3 O  pz         
   120     -0.130194  3 O  py               121      0.128531  3 O  pz         

 Vector   25  Occ=2.000000D+00  E=-1.740147D-01
              MO Center= -1.2D-01, -1.7D-01,  3.6D-01, r^2= 3.3D+00
   Bfn.  Coefficient  Atom+Function         Bfn.  Coefficient  Atom+Function  
  ----- ------------  ---------------      ----- ------------  ---------------
     6      0.172222  1 C  px                 9      0.142170  1 C  px         
   116      0.142052  3 O  px               171      0.141488  4 O  px         
   119      0.138590  3 O  px               174      0.137889  4 O  px         
   315     -0.116346  7 Cl py               255      0.107952  6 Cl px         
   318     -0.105753  7 Cl py               258      0.102474  6 Cl px         

 Vector   26  Occ=2.000000D+00  E=-1.506155D-01
              MO Center= -3.4D-01, -5.2D-01,  1.9D+00, r^2= 3.9D+00
   Bfn.  Coefficient  Atom+Function         Bfn.  Coefficient  Atom+Function  
  ----- ------------  ---------------      ----- ------------  ---------------
   316      0.197468  7 Cl pz               257      0.193795  6 Cl pz         
   256     -0.174910  6 Cl py               319      0.158491  7 Cl pz         
   314     -0.155899  7 Cl px               260      0.154542  6 Cl pz         
   223      0.142171  5 H  s                259     -0.128942  6 Cl py         
    59     -0.125244  2 C  s                263      0.108160  6 Cl pz         

 Vector   27  Occ=2.000000D+00  E=-1.355771D-01
              MO Center= -3.3D-01, -4.5D-01,  1.9D+00, r^2= 4.0D+00
   Bfn.  Coefficient  Atom+Function         Bfn.  Coefficient  Atom+Function  
  ----- ------------  ---------------      ----- ------------  ---------------
   256      0.234727  6 Cl py               314     -0.188289  7 Cl px         
   259      0.176204  6 Cl py               316     -0.159992  7 Cl pz         
   257      0.157582  6 Cl pz               317     -0.148730  7 Cl px         
   262      0.144117  6 Cl py               315     -0.139219  7 Cl py         
   319     -0.125316  7 Cl pz               260      0.122668  6 Cl pz         

 Vector   28  Occ=2.000000D+00  E=-1.247814D-01
              MO Center= -3.8D-01, -5.1D-01,  1.9D+00, r^2= 4.0D+00
   Bfn.  Coefficient  Atom+Function         Bfn.  Coefficient  Atom+Function  
  ----- ------------  ---------------      ----- ------------  ---------------
   257      0.211331  6 Cl pz               314      0.212131  7 Cl px         
   316     -0.199794  7 Cl pz               256     -0.184924  6 Cl py         
   317      0.164999  7 Cl px               260      0.153980  6 Cl pz         
   319     -0.144497  7 Cl pz               259     -0.139068  6 Cl py         
   263      0.138841  6 Cl pz               320      0.134749  7 Cl px         

 Vector   29  Occ=2.000000D+00  E=-1.222186D-01
              MO Center= -3.2D-01, -4.2D-01,  1.9D+00, r^2= 3.7D+00
   Bfn.  Coefficient  Atom+Function         Bfn.  Coefficient  Atom+Function  
  ----- ------------  ---------------      ----- ------------  ---------------
   315      0.187749  7 Cl py               256      0.186077  6 Cl py         
   257      0.168451  6 Cl pz               316      0.163502  7 Cl pz         
   318      0.140654  7 Cl py               259      0.138134  6 Cl py         
   321      0.133431  7 Cl py                59     -0.126001  2 C  s          
   260      0.125064  6 Cl pz               319      0.121390  7 Cl pz         

 Vector   30  Occ=2.000000D+00  E=-4.616039D-02
              MO Center= -3.2D-02, -7.2D-02, -4.7D-01, r^2= 2.1D+00
   Bfn.  Coefficient  Atom+Function         Bfn.  Coefficient  Atom+Function  
  ----- ------------  ---------------      ----- ------------  ---------------
   171     -0.242699  4 O  px               174     -0.243506  4 O  px         
   116      0.226351  3 O  px               119      0.227400  3 O  px         
   177     -0.161180  4 O  px               122      0.157374  3 O  px         
   172      0.136829  4 O  py               175      0.137360  4 O  py         
   117     -0.128867  3 O  py               120     -0.129327  3 O  py         

 Vector   31  Occ=2.000000D+00  E=-3.481069D-02
              MO Center=  7.4D-02,  1.3D-01, -1.5D-01, r^2= 2.9D+00
   Bfn.  Coefficient  Atom+Function         Bfn.  Coefficient  Atom+Function  
  ----- ------------  ---------------      ----- ------------  ---------------
   118     -0.262843  3 O  pz               121     -0.262368  3 O  pz         
    59      0.259086  2 C  s                173     -0.208452  4 O  pz         
   176     -0.206707  4 O  pz               124     -0.178060  3 O  pz         
   179     -0.142452  4 O  pz                 4     -0.139400  1 C  s          
    63     -0.138118  2 C  pz                57      0.137054  2 C  s          

 Vector   32  Occ=2.000000D+00  E=-2.245019D-02
              MO Center= -1.1D-01, -2.0D-01, -4.0D-01, r^2= 2.2D+00
   Bfn.  Coefficient  Atom+Function         Bfn.  Coefficient  Atom+Function  
  ----- ------------  ---------------      ----- ------------  ---------------
   173      0.243719  4 O  pz               176      0.242434  4 O  pz         
   118     -0.178029  3 O  pz               121     -0.176478  3 O  pz         
   179      0.172129  4 O  pz               175     -0.153828  4 O  py         
   120     -0.150542  3 O  py               172     -0.149925  4 O  py         
   117     -0.146905  3 O  py               124     -0.130126  3 O  pz         

 Vector   33  Occ=0.000000D+00  E= 9.493972D-02
              MO Center= -4.2D-01, -4.5D-01,  2.6D+00, r^2= 1.2D+01
   Bfn.  Coefficient  Atom+Function         Bfn.  Coefficient  Atom+Function  
  ----- ------------  ---------------      ----- ------------  ---------------
    59      3.896830  2 C  s                 60      2.587480  2 C  s          
   251     -2.316976  6 Cl s                  4     -2.297835  1 C  s          
   310     -2.284104  7 Cl s                  5     -1.956497  1 C  s          
   224      1.657627  5 H  s                223     -1.440854  5 H  s          
    71     -1.406128  2 C  py               115      0.900920  3 O  s          

 Vector   34  Occ=0.000000D+00  E= 9.764248D-02
              MO Center=  7.0D-01,  1.3D+00,  2.6D+00, r^2= 1.1D+01
   Bfn.  Coefficient  Atom+Function         Bfn.  Coefficient  Atom+Function  
  ----- ------------  ---------------      ----- ------------  ---------------
    60      3.374711  2 C  s                224     -3.242410  5 H  s          
    59     -3.036259  2 C  s                  4      2.158141  1 C  s          
     5      1.806774  1 C  s                 71      1.389471  2 C  py         
    68      1.166513  2 C  py               115     -1.168819  3 O  s          
    85     -1.052220  2 C  dxx              223     -0.939041  5 H  s          

 Vector   35  Occ=0.000000D+00  E= 1.055905D-01
              MO Center= -3.5D-01, -6.6D-01,  2.1D+00, r^2= 1.1D+01
   Bfn.  Coefficient  Atom+Function         Bfn.  Coefficient  Atom+Function  
  ----- ------------  ---------------      ----- ------------  ---------------
   310      2.170124  7 Cl s                251     -1.955467  6 Cl s          
    70     -0.915400  2 C  px               264     -0.757542  6 Cl px         
   324      0.729259  7 Cl py               309     -0.617026  7 Cl s          
    67      0.599462  2 C  px               250      0.578864  6 Cl s          
    71      0.553078  2 C  py               325     -0.506958  7 Cl pz         

 Vector   36  Occ=0.000000D+00  E= 1.321890D-01
              MO Center= -3.5D-01, -3.1D-01,  2.7D+00, r^2= 1.7D+01
   Bfn.  Coefficient  Atom+Function         Bfn.  Coefficient  Atom+Function  
  ----- ------------  ---------------      ----- ------------  ---------------
    60      8.635493  2 C  s                  5      6.250841  1 C  s          
   251     -5.522543  6 Cl s                310     -5.089995  7 Cl s          
     4      2.683815  1 C  s                115     -2.509218  3 O  s          
   224     -2.362370  5 H  s                170     -2.317185  4 O  s          
   223     -1.912554  5 H  s                 59     -1.569026  2 C  s          

 Vector   37  Occ=0.000000D+00  E= 1.369754D-01
              MO Center= -1.2D-01, -7.6D-02,  1.6D+00, r^2= 1.5D+01
   Bfn.  Coefficient  Atom+Function         Bfn.  Coefficient  Atom+Function  
  ----- ------------  ---------------      ----- ------------  ---------------
   310     -3.897118  7 Cl s                251      3.610112  6 Cl s          
    70      1.750026  2 C  px                87      1.021518  2 C  dxz        
    71     -1.011874  2 C  py               264      0.921402  6 Cl px         
   324     -0.799860  7 Cl py                 5      0.795821  1 C  s          
   321     -0.608121  7 Cl py               323      0.563324  7 Cl px         

 Vector   38  Occ=0.000000D+00  E= 1.401554D-01
              MO Center=  1.1D-01,  6.3D-02, -3.3D-01, r^2= 2.0D+01
   Bfn.  Coefficient  Atom+Function         Bfn.  Coefficient  Atom+Function  
  ----- ------------  ---------------      ----- ------------  ---------------
    60     22.849089  2 C  s                  5    -18.407445  1 C  s          
    59     -8.011388  2 C  s                223      4.867694  5 H  s          
    72     -4.556614  2 C  pz                17     -4.484649  1 C  pz         
   310     -2.900188  7 Cl s                251     -2.649309  6 Cl s          
    88     -2.603665  2 C  dyy               85     -2.584715  2 C  dxx        

 Vector   39  Occ=0.000000D+00  E= 1.671492D-01
              MO Center=  2.6D-02,  3.8D-02,  5.4D-01, r^2= 2.0D+01
   Bfn.  Coefficient  Atom+Function         Bfn.  Coefficient  Atom+Function  
  ----- ------------  ---------------      ----- ------------  ---------------
     5      5.374189  1 C  s                  4      5.181707  1 C  s          
    72      4.573229  2 C  pz               170     -4.125814  4 O  s          
   223     -3.440765  5 H  s                 69      3.309821  2 C  pz         
    60     -3.182564  2 C  s                 17     -2.491162  1 C  pz         
   224     -2.452079  5 H  s                 71      2.296907  2 C  py         

 Vector   40  Occ=0.000000D+00  E= 1.743558D-01
              MO Center= -2.1D-02, -5.0D-02,  2.0D+00, r^2= 1.7D+01
   Bfn.  Coefficient  Atom+Function         Bfn.  Coefficient  Atom+Function  
  ----- ------------  ---------------      ----- ------------  ---------------
    67      3.884318  2 C  px                70      2.250324  2 C  px         
    68     -2.101093  2 C  py               250      1.943603  6 Cl s          
   309     -1.934060  7 Cl s                261      1.503773  6 Cl px         
    71     -1.479002  2 C  py               321     -1.365307  7 Cl py         
    15     -1.340065  1 C  px               324      1.151529  7 Cl py         

 Vector   41  Occ=0.000000D+00  E= 1.749377D-01
              MO Center= -1.5D-01, -1.6D-01,  5.2D-01, r^2= 2.1D+01
   Bfn.  Coefficient  Atom+Function         Bfn.  Coefficient  Atom+Function  
  ----- ------------  ---------------      ----- ------------  ---------------
    60     -3.606384  2 C  s                  5      3.461681  1 C  s          
    72      3.388584  2 C  pz                69      3.221982  2 C  pz         
    16      3.070912  1 C  py                 4      2.894837  1 C  s          
    17     -2.437385  1 C  pz                71     -2.445951  2 C  py         
   170      2.449560  4 O  s                115     -2.095600  3 O  s          

 Vector   42  Occ=0.000000D+00  E= 1.780825D-01
              MO Center=  3.0D-02,  1.0D-01,  2.1D+00, r^2= 1.9D+01
   Bfn.  Coefficient  Atom+Function         Bfn.  Coefficient  Atom+Function  
  ----- ------------  ---------------      ----- ------------  ---------------
    60     12.859527  2 C  s                223     -6.258791  5 H  s          
    68      4.630990  2 C  py                 5     -3.706578  1 C  s          
    86      3.329155  2 C  dxy              251     -3.195812  6 Cl s          
   310     -3.129456  7 Cl s                170      2.714791  4 O  s          
    67      2.606431  2 C  px                59     -2.273789  2 C  s          

 Vector   43  Occ=0.000000D+00  E= 1.803942D-01
              MO Center= -7.7D-02, -7.9D-02,  5.8D-01, r^2= 1.7D+01
   Bfn.  Coefficient  Atom+Function         Bfn.  Coefficient  Atom+Function  
  ----- ------------  ---------------      ----- ------------  ---------------
    15      2.287996  1 C  px                60     -1.847307  2 C  s          
    67      1.571262  2 C  px               309     -1.464557  7 Cl s          
    68     -1.421113  2 C  py                16     -1.234929  1 C  py         
   310      1.105718  7 Cl s                250      1.060069  6 Cl s          
    70     -0.983727  2 C  px               321     -0.901216  7 Cl py         

 Vector   44  Occ=0.000000D+00  E= 1.865008D-01
              MO Center=  8.1D-01,  1.5D+00,  2.2D+00, r^2= 1.6D+01
   Bfn.  Coefficient  Atom+Function         Bfn.  Coefficient  Atom+Function  
  ----- ------------  ---------------      ----- ------------  ---------------
    59     13.030393  2 C  s                  4     -9.338725  1 C  s          
    60     -8.511296  2 C  s                115      7.163094  3 O  s          
     5     -6.684293  1 C  s                224      5.926157  5 H  s          
    71     -4.058668  2 C  py                85      3.407124  2 C  dxx        
    90      3.015500  2 C  dzz               14     -2.809247  1 C  pz         

 Vector   45  Occ=0.000000D+00  E= 2.044114D-01
              MO Center= -3.6D-01, -4.8D-01,  1.3D+00, r^2= 1.9D+01
   Bfn.  Coefficient  Atom+Function         Bfn.  Coefficient  Atom+Function  
  ----- ------------  ---------------      ----- ------------  ---------------
    60    -23.213293  2 C  s                  5     22.542720  1 C  s          
    72      8.704241  2 C  pz               223      4.024125  5 H  s          
    17      3.795360  1 C  pz                16      3.260426  1 C  py         
   115     -2.709087  3 O  s                325     -2.671141  7 Cl pz         
   170     -2.634356  4 O  s                266     -2.576033  6 Cl pz         

 Vector   46  Occ=0.000000D+00  E= 2.085490D-01
              MO Center= -2.9D-01, -3.7D-01,  1.9D+00, r^2= 1.7D+01
   Bfn.  Coefficient  Atom+Function         Bfn.  Coefficient  Atom+Function  
  ----- ------------  ---------------      ----- ------------  ---------------
    70      2.790267  2 C  px               323     -2.412545  7 Cl px         
   265      2.016597  6 Cl py                71     -1.737517  2 C  py         
   264     -1.199875  6 Cl px               266     -1.045765  6 Cl pz         
    67      0.794586  2 C  px               325      0.787729  7 Cl pz         
   251      0.761884  6 Cl s                 15      0.725523  1 C  px         

 Vector   47  Occ=0.000000D+00  E= 2.120189D-01
              MO Center= -2.1D-01, -2.8D-01,  1.0D+00, r^2= 1.8D+01
   Bfn.  Coefficient  Atom+Function         Bfn.  Coefficient  Atom+Function  
  ----- ------------  ---------------      ----- ------------  ---------------
    70      4.054698  2 C  px                15     -3.629870  1 C  px         
    67      2.541065  2 C  px                71     -2.394711  2 C  py         
    16      2.153173  1 C  py               266      1.678425  6 Cl pz         
   325     -1.685338  7 Cl pz               251      1.550162  6 Cl s          
   310     -1.537018  7 Cl s                 68     -1.490392  2 C  py         

 Vector   48  Occ=0.000000D+00  E= 2.159918D-01
              MO Center= -5.1D-01, -7.8D-01,  1.2D+00, r^2= 2.0D+01
   Bfn.  Coefficient  Atom+Function         Bfn.  Coefficient  Atom+Function  
  ----- ------------  ---------------      ----- ------------  ---------------
    59      7.569019  2 C  s                170      6.926211  4 O  s          
     4     -6.764583  1 C  s                 72      6.714584  2 C  pz         
     5     -5.051324  1 C  s                 17     -3.911754  1 C  pz         
   115      3.827178  3 O  s                 60      3.741026  2 C  s          
   223     -3.218791  5 H  s                 88      2.240404  2 C  dyy        

 Vector   49  Occ=0.000000D+00  E= 2.248343D-01
              MO Center= -4.8D-01, -7.6D-01,  1.1D+00, r^2= 1.0D+01
   Bfn.  Coefficient  Atom+Function         Bfn.  Coefficient  Atom+Function  
  ----- ------------  ---------------      ----- ------------  ---------------
    70      4.119666  2 C  px               310     -3.143286  7 Cl s          
   251      3.002337  6 Cl s                 71     -2.280437  2 C  py         
   265      1.563317  6 Cl py               323     -1.321587  7 Cl px         
    15     -1.207740  1 C  px               324     -0.941125  7 Cl py         
    87      0.902010  2 C  dxz               12      0.803400  1 C  px         

 Vector   50  Occ=0.000000D+00  E= 2.370798D-01
              MO Center= -2.5D-01, -3.9D-01,  8.4D-01, r^2= 1.6D+01
   Bfn.  Coefficient  Atom+Function         Bfn.  Coefficient  Atom+Function  
  ----- ------------  ---------------      ----- ------------  ---------------
     5     35.042789  1 C  s                 60    -33.034280  2 C  s          
    59     17.208415  2 C  s                223     -8.686020  5 H  s          
     4     -6.923927  1 C  s                 71      6.221769  2 C  py         
    90      5.755807  2 C  dzz               17      5.605276  1 C  pz         
   115     -5.544190  3 O  s                 14     -5.019160  1 C  pz         

 Vector   51  Occ=0.000000D+00  E= 2.432468D-01
              MO Center=  2.2D-01,  4.6D-01, -4.6D-01, r^2= 1.7D+01
   Bfn.  Coefficient  Atom+Function         Bfn.  Coefficient  Atom+Function  
  ----- ------------  ---------------      ----- ------------  ---------------
     4     16.195040  1 C  s                 59    -10.910413  2 C  s          
   115     -9.895929  3 O  s                170     -7.426843  4 O  s          
    35      6.548340  1 C  dzz                5      5.231767  1 C  s          
   251     -5.038020  6 Cl s                 60      4.981190  2 C  s          
   310     -4.768998  7 Cl s                 33      4.382262  1 C  dyy        

 Vector   52  Occ=0.000000D+00  E= 2.621013D-01
              MO Center= -1.4D-01, -2.4D-01,  4.9D-01, r^2= 1.6D+01
   Bfn.  Coefficient  Atom+Function         Bfn.  Coefficient  Atom+Function  
  ----- ------------  ---------------      ----- ------------  ---------------
   310     -6.135880  7 Cl s                251      5.651532  6 Cl s          
   309      3.902005  7 Cl s                250     -3.719893  6 Cl s          
    67     -2.789449  2 C  px                70      2.070438  2 C  px         
    86      2.040309  2 C  dxy               88     -1.806668  2 C  dyy        
    85      1.780605  2 C  dxx               68      1.710844  2 C  py         

 Vector   53  Occ=0.000000D+00  E= 2.751878D-01
              MO Center= -1.2D-01, -8.4D-02,  1.9D+00, r^2= 1.5D+01
   Bfn.  Coefficient  Atom+Function         Bfn.  Coefficient  Atom+Function  
  ----- ------------  ---------------      ----- ------------  ---------------
     5     18.713008  1 C  s                 59     10.632634  2 C  s          
   223     -8.369417  5 H  s                251     -7.741112  6 Cl s          
   310     -7.756105  7 Cl s                 60     -7.179387  2 C  s          
    72      5.696766  2 C  pz                71     -4.191500  2 C  py         
    85      3.227889  2 C  dxx               35     -2.803979  1 C  dzz        

 Vector   54  Occ=0.000000D+00  E= 2.902849D-01
              MO Center= -2.0D-01, -2.1D-01,  1.2D+00, r^2= 1.8D+01
   Bfn.  Coefficient  Atom+Function         Bfn.  Coefficient  Atom+Function  
  ----- ------------  ---------------      ----- ------------  ---------------
   251     10.540765  6 Cl s                310    -10.199075  7 Cl s          
    70      4.542549  2 C  px                71     -2.765505  2 C  py         
   250     -2.190955  6 Cl s                309      2.068062  7 Cl s          
    87      1.920179  2 C  dxz              125     -1.449513  3 O  px         
   261      1.316572  6 Cl px               321     -1.235632  7 Cl py         

 Vector   55  Occ=0.000000D+00  E= 2.936114D-01
              MO Center= -2.0D-01, -2.4D-01,  2.3D+00, r^2= 1.3D+01
   Bfn.  Coefficient  Atom+Function         Bfn.  Coefficient  Atom+Function  
  ----- ------------  ---------------      ----- ------------  ---------------
    60     31.751893  2 C  s                  5    -18.810540  1 C  s          
   310    -11.698652  7 Cl s                251    -11.581174  6 Cl s          
     4     -9.261210  1 C  s                 72     -8.316808  2 C  pz         
    69     -7.340388  2 C  pz                71     -6.021427  2 C  py         
   223      4.435543  5 H  s                250      3.515167  6 Cl s          

 Vector   56  Occ=0.000000D+00  E= 2.977333D-01
              MO Center= -6.5D-02, -8.3D-02,  3.1D-01, r^2= 1.6D+01
   Bfn.  Coefficient  Atom+Function         Bfn.  Coefficient  Atom+Function  
  ----- ------------  ---------------      ----- ------------  ---------------
     4      9.022284  1 C  s                 72      7.387690  2 C  pz         
   115     -5.872142  3 O  s                 34     -5.103638  1 C  dyz        
     5      4.854660  1 C  s                223     -3.866191  5 H  s          
    68      3.522004  2 C  py                35      3.438610  1 C  dzz        
    69      3.391421  2 C  pz                71     -3.234244  2 C  py         

 Vector   57  Occ=0.000000D+00  E= 3.062524D-01
              MO Center=  4.2D-02,  8.4D-02,  8.7D-02, r^2= 1.5D+01
   Bfn.  Coefficient  Atom+Function         Bfn.  Coefficient  Atom+Function  
  ----- ------------  ---------------      ----- ------------  ---------------
     4     12.386691  1 C  s                223    -11.744456  5 H  s          
   170    -10.628676  4 O  s                 60      9.547911  2 C  s          
    68      4.594102  2 C  py                 5      4.212216  1 C  s          
   251     -4.112070  6 Cl s                310     -3.776253  7 Cl s          
   181     -3.703571  4 O  py                33      3.683300  1 C  dyy        

 Vector   58  Occ=0.000000D+00  E= 3.233595D-01
              MO Center=  7.1D-02,  1.1D-01, -3.5D-01, r^2= 1.4D+01
   Bfn.  Coefficient  Atom+Function         Bfn.  Coefficient  Atom+Function  
  ----- ------------  ---------------      ----- ------------  ---------------
    60     19.726207  2 C  s                 59    -16.739976  2 C  s          
     5     -8.646049  1 C  s                 17     -5.808180  1 C  pz         
   223      5.738836  5 H  s                 88     -3.934548  2 C  dyy        
    85     -3.896395  2 C  dxx               90     -3.742461  2 C  dzz        
   182      3.162934  4 O  pz               127      2.748708  3 O  pz         

 Vector   59  Occ=0.000000D+00  E= 3.336354D-01
              MO Center= -1.4D-01, -2.6D-01,  1.3D-01, r^2= 1.7D+01
   Bfn.  Coefficient  Atom+Function         Bfn.  Coefficient  Atom+Function  
  ----- ------------  ---------------      ----- ------------  ---------------
    60     38.757118  2 C  s                  5    -18.390613  1 C  s          
    59    -17.521210  2 C  s                251     -9.210692  6 Cl s          
   310     -8.894804  7 Cl s                223      8.006230  5 H  s          
    72     -7.894280  2 C  pz                16     -7.133792  1 C  py         
     4      6.888336  1 C  s                 90     -5.045247  2 C  dzz        

 Vector   60  Occ=0.000000D+00  E= 3.361320D-01
              MO Center=  9.9D-02,  1.2D-02,  3.4D-01, r^2= 1.6D+01
   Bfn.  Coefficient  Atom+Function         Bfn.  Coefficient  Atom+Function  
  ----- ------------  ---------------      ----- ------------  ---------------
    67      6.785087  2 C  px                60     -4.764327  2 C  s          
   310      4.036590  7 Cl s                250      3.780846  6 Cl s          
    68     -3.726299  2 C  py               309     -3.653336  7 Cl s          
    15      3.448278  1 C  px                 5      3.117597  1 C  s          
   180     -2.863359  4 O  px               125     -2.302781  3 O  px         

 Vector   61  Occ=0.000000D+00  E= 3.423318D-01
              MO Center=  1.4D-01,  3.4D-01,  9.8D-01, r^2= 1.2D+01
   Bfn.  Coefficient  Atom+Function         Bfn.  Coefficient  Atom+Function  
  ----- ------------  ---------------      ----- ------------  ---------------
    67      8.278306  2 C  px                68     -5.015959  2 C  py         
   250      4.416616  6 Cl s                309     -4.427885  7 Cl s          
    70      4.061610  2 C  px                15     -3.994450  1 C  px         
   261      3.626618  6 Cl px               321     -3.323158  7 Cl py         
    87      2.954853  2 C  dxz               60      2.525048  2 C  s          

 Vector   62  Occ=0.000000D+00  E= 3.455512D-01
              MO Center= -2.0D-01, -3.6D-01,  5.9D-01, r^2= 1.2D+01
   Bfn.  Coefficient  Atom+Function         Bfn.  Coefficient  Atom+Function  
  ----- ------------  ---------------      ----- ------------  ---------------
    59     14.974119  2 C  s                223     -9.693735  5 H  s          
   170     -7.235985  4 O  s                  4     -6.685486  1 C  s          
    34      5.394514  1 C  dyz               60     -5.115949  2 C  s          
    89      5.028344  2 C  dyz              115      4.165507  3 O  s          
    14     -3.910851  1 C  pz               232      3.707119  5 H  py         

 Vector   63  Occ=0.000000D+00  E= 3.594511D-01
              MO Center= -1.3D-01, -2.4D-01,  7.9D-01, r^2= 1.3D+01
   Bfn.  Coefficient  Atom+Function         Bfn.  Coefficient  Atom+Function  
  ----- ------------  ---------------      ----- ------------  ---------------
   223     18.451707  5 H  s                115    -13.475699  3 O  s          
     5     13.184811  1 C  s                170    -12.195916  4 O  s          
    60     -9.283038  2 C  s                 14     -8.788506  1 C  pz         
    69     -8.516550  2 C  pz                59     -8.104096  2 C  s          
    68     -6.820545  2 C  py                33      6.192056  1 C  dyy        

 Vector   64  Occ=0.000000D+00  E= 3.708794D-01
              MO Center= -1.5D-01, -2.4D-02,  1.5D+00, r^2= 8.0D+00
   Bfn.  Coefficient  Atom+Function         Bfn.  Coefficient  Atom+Function  
  ----- ------------  ---------------      ----- ------------  ---------------
    67      6.519113  2 C  px               309     -6.094079  7 Cl s          
   250      5.766077  6 Cl s                 68     -5.614986  2 C  py         
   261      4.200740  6 Cl px                86     -4.164731  2 C  dxy        
    85     -3.604273  2 C  dxx              321     -3.103602  7 Cl py         
   223      2.847878  5 H  s                 88      2.750889  2 C  dyy        

 Vector   65  Occ=0.000000D+00  E= 3.796048D-01
              MO Center=  1.8D-01,  2.9D-01,  8.3D-01, r^2= 1.1D+01
   Bfn.  Coefficient  Atom+Function         Bfn.  Coefficient  Atom+Function  
  ----- ------------  ---------------      ----- ------------  ---------------
     5     24.217881  1 C  s                 69     -8.115110  2 C  pz         
   115     -7.456672  3 O  s                 60     -7.375971  2 C  s          
   223     -6.759693  5 H  s                 68      5.317376  2 C  py         
   170     -5.280623  4 O  s                 14     -5.096078  1 C  pz         
   250      4.817818  6 Cl s                 71      4.775634  2 C  py         

 Vector   66  Occ=0.000000D+00  E= 3.901107D-01
              MO Center= -1.2D-02,  1.6D-02,  1.4D+00, r^2= 1.1D+01
   Bfn.  Coefficient  Atom+Function         Bfn.  Coefficient  Atom+Function  
  ----- ------------  ---------------      ----- ------------  ---------------
    60    -28.355805  2 C  s                  5     26.613820  1 C  s          
   115     -8.722039  3 O  s                170     -8.008737  4 O  s          
     4      7.796999  1 C  s                 59      4.849608  2 C  s          
   310      4.502451  7 Cl s                251      4.369175  6 Cl s          
   233      3.493891  5 H  pz                89     -3.271042  2 C  dyz        

 Vector   67  Occ=0.000000D+00  E= 3.987379D-01
              MO Center=  6.7D-02,  2.6D-01,  9.0D-01, r^2= 1.3D+01
   Bfn.  Coefficient  Atom+Function         Bfn.  Coefficient  Atom+Function  
  ----- ------------  ---------------      ----- ------------  ---------------
    60     30.032278  2 C  s                 59    -13.490489  2 C  s          
     5    -12.874711  1 C  s                  4     12.326424  1 C  s          
   115    -11.825369  3 O  s                251     -7.609518  6 Cl s          
   310     -7.573456  7 Cl s                 69      5.843886  2 C  pz         
    90     -5.386423  2 C  dzz               14      5.053594  1 C  pz         

 Vector   68  Occ=0.000000D+00  E= 4.073998D-01
              MO Center=  8.0D-02,  1.7D-01,  1.4D+00, r^2= 1.3D+01
   Bfn.  Coefficient  Atom+Function         Bfn.  Coefficient  Atom+Function  
  ----- ------------  ---------------      ----- ------------  ---------------
     4     15.929737  1 C  s                 59     -9.227873  2 C  s          
    69      8.637607  2 C  pz               115     -7.168606  3 O  s          
   223      7.099873  5 H  s                 14      5.802549  1 C  pz         
    90     -5.146858  2 C  dzz               86     -3.884458  2 C  dxy        
    88     -3.880029  2 C  dyy              170      3.773764  4 O  s          

 Vector   69  Occ=0.000000D+00  E= 4.113363D-01
              MO Center= -3.5D-01, -4.8D-01,  1.6D+00, r^2= 9.5D+00
   Bfn.  Coefficient  Atom+Function         Bfn.  Coefficient  Atom+Function  
  ----- ------------  ---------------      ----- ------------  ---------------
    67      5.556985  2 C  px                87     -3.436819  2 C  dxz        
    68     -3.116360  2 C  py               250      2.996130  6 Cl s          
    12     -2.814075  1 C  px                86     -2.725257  2 C  dxy        
   309     -2.625963  7 Cl s                310      2.549446  7 Cl s          
    85     -2.536249  2 C  dxx              251     -2.514751  6 Cl s          

 Vector   70  Occ=0.000000D+00  E= 4.186220D-01
              MO Center= -4.0D-01, -5.4D-01,  2.0D+00, r^2= 8.3D+00
   Bfn.  Coefficient  Atom+Function         Bfn.  Coefficient  Atom+Function  
  ----- ------------  ---------------      ----- ------------  ---------------
    67      2.185992  2 C  px                87     -1.632113  2 C  dxz        
   281     -1.281998  6 Cl dxz               88      1.197024  2 C  dyy        
   340     -1.110283  7 Cl dxz               59      1.047181  2 C  s          
    60     -1.026046  2 C  s                 68     -0.990761  2 C  py         
     4     -0.979390  1 C  s                309     -0.933083  7 Cl s          

 Vector   71  Occ=0.000000D+00  E= 4.234625D-01
              MO Center= -2.0D-02,  1.4D-02,  2.0D+00, r^2= 1.1D+01
   Bfn.  Coefficient  Atom+Function         Bfn.  Coefficient  Atom+Function  
  ----- ------------  ---------------      ----- ------------  ---------------
   223     25.256625  5 H  s                 68    -15.529187  2 C  py         
    59    -10.246301  2 C  s                 86     -9.656892  2 C  dxy        
    67     -8.928738  2 C  px               115     -7.441227  3 O  s          
   233     -5.167119  5 H  pz               232     -5.137375  5 H  py         
   309     -4.690003  7 Cl s                250     -4.437011  6 Cl s          

 Vector   72  Occ=0.000000D+00  E= 4.380309D-01
              MO Center= -6.3D-02, -5.5D-03,  2.0D+00, r^2= 9.9D+00
   Bfn.  Coefficient  Atom+Function         Bfn.  Coefficient  Atom+Function  
  ----- ------------  ---------------      ----- ------------  ---------------
    67      5.397089  2 C  px                87      4.858575  2 C  dxz        
    68     -4.380027  2 C  py               231     -4.009387  5 H  px         
   321     -3.798350  7 Cl py               309     -3.172250  7 Cl s          
    89     -3.059252  2 C  dyz              261      2.884553  6 Cl px         
   250      2.363632  6 Cl s                339      2.100815  7 Cl dxy        

 Vector   73  Occ=0.000000D+00  E= 4.393515D-01
              MO Center= -3.5D-01, -3.7D-01,  1.8D+00, r^2= 1.1D+01
   Bfn.  Coefficient  Atom+Function         Bfn.  Coefficient  Atom+Function  
  ----- ------------  ---------------      ----- ------------  ---------------
     4     20.998967  1 C  s                 59    -20.906343  2 C  s          
    60     11.356391  2 C  s                170     -9.597995  4 O  s          
    14      9.288675  1 C  pz               223     -9.180804  5 H  s          
    68      8.748384  2 C  py                 5     -7.788225  1 C  s          
    69      7.362656  2 C  pz                90     -7.020411  2 C  dzz        

 Vector   74  Occ=0.000000D+00  E= 4.641724D-01
              MO Center= -2.4D-01, -2.9D-01,  1.5D+00, r^2= 1.2D+01
   Bfn.  Coefficient  Atom+Function         Bfn.  Coefficient  Atom+Function  
  ----- ------------  ---------------      ----- ------------  ---------------
    87     -4.668523  2 C  dxz               86     -4.592902  2 C  dxy        
    67      4.341912  2 C  px                85     -4.005178  2 C  dxx        
    88      4.013442  2 C  dyy               32     -3.745616  1 C  dxz        
   231      3.709927  5 H  px                12     -2.899271  1 C  px         
   309     -2.910818  7 Cl s                250      2.799083  6 Cl s          

 Vector   75  Occ=0.000000D+00  E= 4.791080D-01
              MO Center= -7.9D-02, -1.6D-01,  7.1D-01, r^2= 1.1D+01
   Bfn.  Coefficient  Atom+Function         Bfn.  Coefficient  Atom+Function  
  ----- ------------  ---------------      ----- ------------  ---------------
    59     36.757490  2 C  s                223    -35.092865  5 H  s          
     5     18.819069  1 C  s                 60    -15.685147  2 C  s          
    68      9.745227  2 C  py               170     -7.953128  4 O  s          
    88      7.653427  2 C  dyy              232      7.635505  5 H  py         
    85      7.246427  2 C  dxx               14     -6.756591  1 C  pz         

 Vector   76  Occ=0.000000D+00  E= 4.859578D-01
              MO Center= -3.8D-01, -6.9D-01,  4.2D-01, r^2= 1.1D+01
   Bfn.  Coefficient  Atom+Function         Bfn.  Coefficient  Atom+Function  
  ----- ------------  ---------------      ----- ------------  ---------------
   223     27.457450  5 H  s                  4    -14.991367  1 C  s          
   170     14.120643  4 O  s                 59    -10.136463  2 C  s          
   115     10.010795  3 O  s                 68     -9.822514  2 C  py         
    35     -8.937389  1 C  dzz               67     -8.422605  2 C  px         
    33     -6.534014  1 C  dyy               69     -6.331236  2 C  pz         

 Vector   77  Occ=0.000000D+00  E= 4.871612D-01
              MO Center= -4.1D-01, -5.8D-01,  6.4D-01, r^2= 1.2D+01
   Bfn.  Coefficient  Atom+Function         Bfn.  Coefficient  Atom+Function  
  ----- ------------  ---------------      ----- ------------  ---------------
   223     -7.144114  5 H  s                 68      6.981602  2 C  py         
   309      4.471067  7 Cl s                  4      4.398531  1 C  s          
   170     -4.236934  4 O  s                 67     -4.196107  2 C  px         
    86      3.825771  2 C  dxy               35      3.517744  1 C  dzz        
   115     -3.513016  3 O  s                 32      3.371615  1 C  dxz        

 Vector   78  Occ=0.000000D+00  E= 5.048695D-01
              MO Center=  6.4D-02,  1.4D-01,  1.5D-01, r^2= 1.1D+01
   Bfn.  Coefficient  Atom+Function         Bfn.  Coefficient  Atom+Function  
  ----- ------------  ---------------      ----- ------------  ---------------
    59     36.712662  2 C  s                  4    -25.586315  1 C  s          
    14    -15.480368  1 C  pz                35    -12.811867  1 C  dzz        
     5    -11.823323  1 C  s                115      9.908340  3 O  s          
   223     -9.808788  5 H  s                 69     -9.657172  2 C  pz         
   170      8.110394  4 O  s                 85      5.506253  2 C  dxx        

 Vector   79  Occ=0.000000D+00  E= 5.120923D-01
              MO Center= -1.3D-01, -2.4D-01,  1.4D+00, r^2= 9.9D+00
   Bfn.  Coefficient  Atom+Function         Bfn.  Coefficient  Atom+Function  
  ----- ------------  ---------------      ----- ------------  ---------------
   309    -12.445983  7 Cl s                 67     12.361447  2 C  px         
   250     11.201433  6 Cl s                 87      7.971954  2 C  dxz        
   261      7.845186  6 Cl px                68     -7.791624  2 C  py         
   321     -7.037519  7 Cl py                86     -5.685649  2 C  dxy        
    89     -5.585046  2 C  dyz               85     -5.217255  2 C  dxx        

 Vector   80  Occ=0.000000D+00  E= 5.219992D-01
              MO Center=  2.0D-01,  4.4D-01,  1.9D+00, r^2= 1.1D+01
   Bfn.  Coefficient  Atom+Function         Bfn.  Coefficient  Atom+Function  
  ----- ------------  ---------------      ----- ------------  ---------------
    59     48.447696  2 C  s                223    -32.411352  5 H  s          
     4    -25.200610  1 C  s                 60    -24.329663  2 C  s          
     5     21.284677  1 C  s                 90     14.618310  2 C  dzz        
    14    -12.711546  1 C  pz                85     10.625602  2 C  dxx        
   232      9.824841  5 H  py                88      9.344328  2 C  dyy        

 Vector   81  Occ=0.000000D+00  E= 5.315600D-01
              MO Center=  2.0D-01, -5.5D-02,  1.0D+00, r^2= 9.7D+00
   Bfn.  Coefficient  Atom+Function         Bfn.  Coefficient  Atom+Function  
  ----- ------------  ---------------      ----- ------------  ---------------
   223    -13.124110  5 H  s                 59     12.734056  2 C  s          
    69     12.276923  2 C  pz                 4     10.657725  1 C  s          
    60     -8.403763  2 C  s                309     -8.328311  7 Cl s          
    14      8.025022  1 C  pz               115      7.535242  3 O  s          
    88      7.006821  2 C  dyy               86     -6.432729  2 C  dxy        

 Vector   82  Occ=0.000000D+00  E= 5.354243D-01
              MO Center= -1.8D-01,  1.2D-01,  1.0D+00, r^2= 9.7D+00
   Bfn.  Coefficient  Atom+Function         Bfn.  Coefficient  Atom+Function  
  ----- ------------  ---------------      ----- ------------  ---------------
    69     10.740263  2 C  pz               223    -10.540167  5 H  s          
     4     10.428088  1 C  s                250     -9.326743  6 Cl s          
    59      9.041016  2 C  s                 85      8.958087  2 C  dxx        
    14      7.298343  1 C  pz               261     -7.282512  6 Cl px         
   115      6.197906  3 O  s                 60     -5.674265  2 C  s          

 Vector   83  Occ=0.000000D+00  E= 5.418412D-01
              MO Center= -2.9D-01, -2.2D-01,  1.7D+00, r^2= 1.0D+01
   Bfn.  Coefficient  Atom+Function         Bfn.  Coefficient  Atom+Function  
  ----- ------------  ---------------      ----- ------------  ---------------
    60     20.787081  2 C  s                 59    -16.527051  2 C  s          
     4      9.723523  1 C  s                251     -8.349333  6 Cl s          
   310     -7.849429  7 Cl s                223     -6.100353  5 H  s          
   115     -5.028594  3 O  s                250      4.491109  6 Cl s          
    69      3.922328  2 C  pz                72     -3.579245  2 C  pz         

 Vector   84  Occ=0.000000D+00  E= 5.555052D-01
              MO Center=  3.7D-02,  6.3D-02,  8.0D-01, r^2= 8.5D+00
   Bfn.  Coefficient  Atom+Function         Bfn.  Coefficient  Atom+Function  
  ----- ------------  ---------------      ----- ------------  ---------------
   223     24.957887  5 H  s                 89    -14.719044  2 C  dyz        
     4     12.656285  1 C  s                 59    -12.372213  2 C  s          
     5    -11.347209  1 C  s                 87     -8.951955  2 C  dxz        
    90     -8.444378  2 C  dzz               68     -7.754118  2 C  py         
    69      7.318882  2 C  pz               170      6.877438  4 O  s          

 Vector   85  Occ=0.000000D+00  E= 5.739611D-01
              MO Center=  7.6D-02,  1.0D-01,  1.4D+00, r^2= 1.2D+01
   Bfn.  Coefficient  Atom+Function         Bfn.  Coefficient  Atom+Function  
  ----- ------------  ---------------      ----- ------------  ---------------
   309     11.201556  7 Cl s                310    -10.334279  7 Cl s          
    86      9.847787  2 C  dxy               67     -9.231750  2 C  px         
   251      9.220351  6 Cl s                 88     -8.606797  2 C  dyy        
   250     -8.506270  6 Cl s                 87      7.595915  2 C  dxz        
    85      6.527208  2 C  dxx               68      6.161892  2 C  py         

 Vector   86  Occ=0.000000D+00  E= 5.784970D-01
              MO Center=  5.9D-02,  2.8D-01,  4.7D-01, r^2= 9.0D+00
   Bfn.  Coefficient  Atom+Function         Bfn.  Coefficient  Atom+Function  
  ----- ------------  ---------------      ----- ------------  ---------------
     4     28.618129  1 C  s                  5     25.941614  1 C  s          
    60    -25.637048  2 C  s                115    -15.128496  3 O  s          
    89    -14.764479  2 C  dyz              223      9.984052  5 H  s          
   250     -9.964267  6 Cl s                 34     -7.737091  1 C  dyz        
   309     -7.247670  7 Cl s                 69      6.932406  2 C  pz         

[...]
              MO Center= -1.7D-01, -3.3D-01, -6.2D-01, r^2= 1.8D+00
   Bfn.  Coefficient  Atom+Function         Bfn.  Coefficient  Atom+Function  
  ----- ------------  ---------------      ----- ------------  ---------------
   169     13.824502  4 O  s                114    -11.677218  3 O  s          
   167      8.765646  4 O  s                 59     -7.370343  2 C  s          
   112     -5.778914  3 O  s                179      4.630801  4 O  pz         
    13      4.269023  1 C  py                10      3.831428  1 C  py         
   178      3.781575  4 O  py               123      3.754132  3 O  py         

 Vector  360  Occ=0.000000D+00  E= 1.891387D+01
              MO Center=  4.2D-01,  7.2D-01, -3.2D-01, r^2= 2.3D+00
   Bfn.  Coefficient  Atom+Function         Bfn.  Coefficient  Atom+Function  
  ----- ------------  ---------------      ----- ------------  ---------------
     4     37.396603  1 C  s                 59    -33.863255  2 C  s          
   223     18.787733  5 H  s                 13     15.618810  1 C  py         
    31     11.048871  1 C  dxy              123     10.609801  3 O  py         
   120     10.400169  3 O  py                33      9.609230  1 C  dyy        
   140     -9.649092  3 O  dxx              143     -9.316867  3 O  dyy        

 Vector  361  Occ=0.000000D+00  E= 1.963030D+01
              MO Center= -3.8D-01, -6.9D-01, -3.5D-01, r^2= 2.5D+00
   Bfn.  Coefficient  Atom+Function         Bfn.  Coefficient  Atom+Function  
  ----- ------------  ---------------      ----- ------------  ---------------
    59     35.776439  2 C  s                  4     20.118123  1 C  s          
   222    -14.684534  5 H  s                 13    -13.441739  1 C  py         
    14    -11.990728  1 C  pz                31     10.880512  1 C  dxy        
    53    -10.567430  1 C  fyyz              50    -10.514135  1 C  fxyz       
   167    -10.218967  4 O  s                175     -9.992808  4 O  py         

 Vector  362  Occ=0.000000D+00  E= 2.810010D+01
              MO Center=  8.7D-04,  3.7D-02,  7.0D-01, r^2= 2.2D+00
   Bfn.  Coefficient  Atom+Function         Bfn.  Coefficient  Atom+Function  
  ----- ------------  ---------------      ----- ------------  ---------------
     2     21.980979  1 C  s                 57     21.835347  2 C  s          
   169    -14.888473  4 O  s                 68    -12.765423  2 C  py         
     1     10.834605  1 C  s                 56     10.735264  2 C  s          
   178     -9.303087  4 O  py               222     -8.728457  5 H  s          
    33     -8.650368  1 C  dyy               60     -8.410034  2 C  s          

 Vector  363  Occ=0.000000D+00  E= 2.925284D+01
              MO Center=  8.1D-03,  4.8D-02,  7.1D-01, r^2= 2.1D+00
   Bfn.  Coefficient  Atom+Function         Bfn.  Coefficient  Atom+Function  
  ----- ------------  ---------------      ----- ------------  ---------------
    59     39.103238  2 C  s                 57    -22.576480  2 C  s          
     2     21.778747  1 C  s                169    -16.630347  4 O  s          
    53    -13.986302  1 C  fyyz             114    -13.154641  3 O  s          
     4    -12.967039  1 C  s                 50    -12.253531  1 C  fxyz       
   223    -11.363708  5 H  s                 56    -11.094133  2 C  s          


 center of mass
 --------------
 x =  -0.43588372 y =  -0.60615995 z =   2.32557116

 moments of inertia (a.u.)
 ------------------
        1005.783456707315         145.271962991447          93.748199320973
         145.271962991447        1168.859920419890         152.880684572221
          93.748199320973         152.880684572221         775.686356792276

     Multipole analysis of the density
     ---------------------------------

     L   x y z        total         alpha         beta         nuclear
     -   - - -        -----         -----         ----         -------
     0   0 0 0     -1.000000    -32.000000    -32.000000     63.000000

     1   1 0 0      0.337793     13.373311     13.373311    -26.408830
     1   0 1 0      0.552729     18.517210     18.517210    -36.481691
     1   0 0 1     -0.264582    -72.775005    -72.775005    145.285427

     2   2 0 0    -41.643512   -141.257626   -141.257626    240.871740
     2   1 1 0     -1.399708     25.585134     25.585134    -52.569977
     2   1 0 1      1.636716     54.031846     54.031846   -106.426976
     2   0 2 0    -43.283810   -109.033031   -109.033031    174.782252
     2   0 1 1      2.462795     80.227207     80.227207   -157.991619
     2   0 0 2    -47.248330   -364.698255   -364.698255    682.148180

 Line search: 
     step= 1.00 grad=-5.3D-07 hess=-7.8D-07 energy=  -1147.263466 mode=accept  
 new step= 1.00                   predicted energy=  -1147.263466

          --------
          Step   9
          --------


                         Geometry "geometry" -> "geometry"
                         ---------------------------------

 Output coordinates in angstroms (scale by  1.889725989 to convert to a.u.)

  No.       Tag          Charge          X              Y              Z
 ---- ---------------- ---------- -------------- -------------- --------------
    1 C                    6.0000    -0.00282619    -0.00847686    -0.07545256
    2 C                    6.0000    -0.01728729     0.05111401     1.50859218
    3 O                    8.0000     0.58484252     1.00435820    -0.54130758
    4 O                    8.0000    -0.54386086    -0.99059763    -0.61559372
    5 H                    1.0000     0.49611359     0.93868263     1.88409838
    6 Cl                  17.0000    -1.71237918     0.15373246     2.18072604
    7 Cl                  17.0000     0.84895341    -1.36607780     2.26951027

      Atomic Mass 
      ----------- 

      C                 12.000000
      O                 15.994910
      H                  1.007825
      Cl                34.968850


 Effective nuclear repulsion energy (a.u.)     335.8137807301

            Nuclear Dipole moment (a.u.) 
            ----------------------------
        X                 Y               Z
 ---------------- ---------------- ----------------
   -26.4088301992   -36.4816908092   145.2854274804


                                 NWChem DFT Module
                                 -----------------




 Summary of "ao basis" -> "ao basis" (cartesian)
 ------------------------------------------------------------------------------
       Tag                 Description            Shells   Functions and Types
 ---------------- ------------------------------  ------  ---------------------
 C                        aug-cc-pVTZ               14       55   5s4p3d2f
 O                        aug-cc-pVTZ               14       55   5s4p3d2f
 H                        aug-cc-pVTZ                9       25   4s3p2d
 Cl                       aug-cc-pVTZ               16       59   6s5p3d2f



  The DFT is already converged 

         Total DFT energy =  -1147.263465995329


            General Information
            -------------------
          SCF calculation type: DFT
          Wavefunction type:  closed shell.
          No. of atoms     :     7
          No. of electrons :    64
           Alpha electrons :    32
            Beta electrons :    32
          Charge           :    -1
          Spin multiplicity:     1
          Use of symmetry is: off; symmetry adaption is: off
          Maximum number of iterations: 200
          AO basis - number of functions:   363
                     number of shells:    97
          Convergence on energy requested:  1.00D-06
          Convergence on density requested:  1.00D-05
          Convergence on gradient requested:  5.00D-04

              XC Information
              --------------
          PerdewBurkeErnzerhof Exchange Functional  1.000          
            Perdew 1991 LDA Correlation Functional  1.000 local    
           PerdewBurkeErnz. Correlation Functional  1.000 non-local

             Grid Information
             ----------------
          Grid used for XC integration:  medium    
          Radial quadrature: Mura-Knowles        
          Angular quadrature: Lebedev. 
          Tag              B.-S. Rad. Rad. Pts. Rad. Cut. Ang. Pts.
          ---              ---------- --------- --------- ---------
          C                   0.70       49          13.0       434
          O                   0.60       49          14.0       434
          H                   0.35       45          13.0       434
          Cl                  1.00       88          13.0       590
          Grid pruning is: on 
          Number of quadrature shells:   417
          Spatial weights used:  Erf1

          Convergence Information
          -----------------------
          Convergence aids based upon iterative change in 
          total energy or number of iterations. 
          Levelshifting, if invoked, occurs when the 
          HOMO/LUMO gap drops below (HL_TOL):  1.00D-02
          DIIS, if invoked, will attempt to extrapolate 
          using up to (NFOCK): 10 stored Fock matrices.

                    Damping(40%)  Levelshifting(0.0)       DIIS
                  --------------- ------------------- ---------------
          dE  on:    start            ASAP                start   
          dE off:  200 iters        200 iters           200 iters 


      Screening Tolerance Information
      -------------------------------
          Density screening/tol_rho:  1.00D-10
          AO Gaussian exp screening on grid/accAOfunc:  14
          CD Gaussian exp screening on grid/accCDfunc:  20
          XC Gaussian exp screening on grid/accXCfunc:  20
          Schwarz screening/accCoul:  1.00D-08



                            NWChem DFT Gradient Module
                            --------------------------



  charge          =  -1.00
  wavefunction    = closed shell



                         DFT ENERGY GRADIENTS

    atom               coordinates                        gradient
                 x          y          z           x          y          z
   1 C      -0.005341  -0.016019  -0.142585   -0.000216  -0.000336  -0.000013
   2 C      -0.032668   0.096591   2.850826   -0.000033  -0.000072   0.000089
   3 O       1.105192   1.897962  -1.022923    0.000122   0.000219  -0.000133
   4 O      -1.027748  -1.871958  -1.163303    0.000067   0.000127   0.000059
   5 H       0.937519   1.773853   3.560430   -0.000024  -0.000015   0.000038
   6 Cl     -3.235927   0.290512   4.120975    0.000133  -0.000003  -0.000047
   7 Cl      1.604289  -2.581513   4.288753   -0.000050   0.000080   0.000007

                 ----------------------------------------
                 |  Time  |  1-e(secs)   |  2-e(secs)   |
                 ----------------------------------------
                 |  CPU   |       0.01   |      22.79   |
                 ----------------------------------------
                 |  WALL  |       0.01   |      22.91   |
                 ----------------------------------------

  Step       Energy      Delta E   Gmax     Grms     Xrms     Xmax   Walltime
  ---- ---------------- -------- -------- -------- -------- -------- --------
@    9   -1147.26346600 -1.3D-06  0.00034  0.00012  0.00056  0.00177   1272.1
                                     ok       ok       ok       ok  


      ----------------------
      Optimization converged
      ----------------------


  Step       Energy      Delta E   Gmax     Grms     Xrms     Xmax   Walltime
  ---- ---------------- -------- -------- -------- -------- -------- --------
@    9   -1147.26346600 -1.3D-06  0.00034  0.00012  0.00056  0.00177   1272.1
                                     ok       ok       ok       ok  



                         Geometry "geometry" -> "geometry"
                         ---------------------------------

 Output coordinates in angstroms (scale by  1.889725989 to convert to a.u.)

  No.       Tag          Charge          X              Y              Z
 ---- ---------------- ---------- -------------- -------------- --------------
    1 C                    6.0000    -0.00282619    -0.00847686    -0.07545256
    2 C                    6.0000    -0.01728729     0.05111401     1.50859218
    3 O                    8.0000     0.58484252     1.00435820    -0.54130758
    4 O                    8.0000    -0.54386086    -0.99059763    -0.61559372
    5 H                    1.0000     0.49611359     0.93868263     1.88409838
    6 Cl                  17.0000    -1.71237918     0.15373246     2.18072604
    7 Cl                  17.0000     0.84895341    -1.36607780     2.26951027

      Atomic Mass 
      ----------- 

      C                 12.000000
      O                 15.994910
      H                  1.007825
      Cl                34.968850


 Effective nuclear repulsion energy (a.u.)     335.8137807301

            Nuclear Dipole moment (a.u.) 
            ----------------------------
        X                 Y               Z
 ---------------- ---------------- ----------------
   -26.4088301992   -36.4816908092   145.2854274804

 ==============================================================================
                                internuclear distances
 ------------------------------------------------------------------------------
       center one      |      center two      | atomic units |  angstroms
 ------------------------------------------------------------------------------
    2 C                |   1 C                |     2.99565  |     1.58523
    3 O                |   1 C                |     2.38151  |     1.26024
    4 O                |   1 C                |     2.35196  |     1.24460
    5 H                |   2 C                |     2.06349  |     1.09195
    6 Cl               |   2 C                |     3.45134  |     1.82637
    7 Cl               |   2 C                |     3.45246  |     1.82697
 ------------------------------------------------------------------------------
                         number of included internuclear distances:          6
 ==============================================================================



 ==============================================================================
                                 internuclear angles
 ------------------------------------------------------------------------------
        center 1       |       center 2       |       center 3       |  degrees
 ------------------------------------------------------------------------------
    2 C                |   1 C                |   3 O                |   110.09
    2 C                |   1 C                |   4 O                |   117.35
    3 O                |   1 C                |   4 O                |   132.57
    1 C                |   2 C                |   5 H                |   111.71
    1 C                |   2 C                |   6 Cl               |   112.23
    1 C                |   2 C                |   7 Cl               |   112.50
    5 H                |   2 C                |   6 Cl               |   105.32
    5 H                |   2 C                |   7 Cl               |   105.33
    6 Cl               |   2 C                |   7 Cl               |   109.29
 ------------------------------------------------------------------------------
                            number of included internuclear angles:          9
 ==============================================================================




 Task  times  cpu:     1257.0s     wall:     1272.0s


                                NWChem Input Module
                                -------------------


 Summary of allocated global arrays
-----------------------------------
  No active global arrays


MA_summarize_allocated_blocks: starting scan ...
MA_summarize_allocated_blocks: scan completed: 0 heap blocks, 0 stack blocks
MA usage statistics:

	allocation statistics:
					      heap	     stack
					      ----	     -----
	current number of blocks	         0	         0
	maximum number of blocks	        24	        53
	current total bytes		         0	         0
	maximum total bytes		 269204176	  80174920
	maximum total K-bytes		    269205	     80175
	maximum total M-bytes		       270	        81


                                     CITATION
                                     --------
                Please cite the following reference when publishing
                           results obtained with NWChem:

          E. Apra, E. J. Bylaska, W. A. de Jong, N. Govind, K. Kowalski,
       T. P. Straatsma, M. Valiev, H. J. J. van Dam, Y. Alexeev, J. Anchell,
       V. Anisimov, F. W. Aquino, R. Atta-Fynn, J. Autschbach, N. P. Bauman,
     J. C. Becca, D. E. Bernholdt, K. Bhaskaran-Nair, S. Bogatko, P. Borowski,
         J. Boschen, J. Brabec, A. Bruner, E. Cauet, Y. Chen, G. N. Chuev,
      C. J. Cramer, J. Daily, M. J. O. Deegan, T. H. Dunning Jr., M. Dupuis,
   K. G. Dyall, G. I. Fann, S. A. Fischer, A. Fonari, H. Fruchtl, L. Gagliardi,
      J. Garza, N. Gawande, S. Ghosh, K. Glaesemann, A. W. Gotz, J. Hammond,
       V. Helms, E. D. Hermes, K. Hirao, S. Hirata, M. Jacquelin, L. Jensen,
   B. G. Johnson, H. Jonsson, R. A. Kendall, M. Klemm, R. Kobayashi, V. Konkov,
      S. Krishnamoorthy, M. Krishnan, Z. Lin, R. D. Lins, R. J. Littlefield,
      A. J. Logsdail, K. Lopata, W. Ma, A. V. Marenich, J. Martin del Campo,
   D. Mejia-Rodriguez, J. E. Moore, J. M. Mullin, T. Nakajima, D. R. Nascimento,
    J. A. Nichols, P. J. Nichols, J. Nieplocha, A. Otero-de-la-Roza, B. Palmer,
    A. Panyala, T. Pirojsirikul, B. Peng, R. Peverati, J. Pittner, L. Pollack,
   R. M. Richard, P. Sadayappan, G. C. Schatz, W. A. Shelton, D. W. Silverstein,
   D. M. A. Smith, T. A. Soares, D. Song, M. Swart, H. L. Taylor, G. S. Thomas,
            V. Tipparaju, D. G. Truhlar, K. Tsemekhman, T. Van Voorhis,
      A. Vazquez-Mayagoitia, P. Verma, O. Villa, A. Vishnu, K. D. Vogiatzis,
        D. Wang, J. H. Weare, M. J. Williamson, T. L. Windus, K. Wolinski,
        A. T. Wong, Q. Wu, C. Yang, Q. Yu, M. Zacharias, Z. Zhang, Y. Zhao,
                                and R. J. Harrison
                        "NWChem: Past, present, and future
                         J. Chem. Phys. 152, 184102 (2020)
                               doi:10.1063/5.0004997

                                      AUTHORS
                                      -------
  E. Apra, E. J. Bylaska, N. Govind, K. Kowalski, M. Valiev, D. Mejia-Rodriguez,
       A. Kunitsa, N. P. Bauman, A. Panyala, W. A. de Jong, T. P. Straatsma,
   H. J. J. van Dam, D. Wang, T. L. Windus, J. Hammond, J. Autschbach, A. Woods,
    K. Bhaskaran-Nair, J. Brabec, K. Lopata, S. A. Fischer, S. Krishnamoorthy,
     M. Jacquelin, W. Ma, M. Klemm, O. Villa, Y. Chen, V. Anisimov, F. Aquino,
     S. Hirata, M. T. Hackler, E. Hermes, L. Jensen, J. E. Moore, J. C. Becca,
      V. Konjkov, T. Risthaus, M. Malagoli, A. Marenich, A. Otero-de-la-Roza,
        J. Mullin, P. Nichols, R. Peverati, J. Pittner, Y. Zhao, P.-D. Fan,
        A. Fonari, M. J. Williamson, R. J. Harrison, J. R. Rehr, M. Dupuis,
     D. Silverstein, D. M. A. Smith, J. Nieplocha, V. Tipparaju, M. Krishnan,
     B. E. Van Kuiken, A. Vazquez-Mayagoitia, M. Swart, Q. Wu, T. Van Voorhis,
     A. A. Auer, M. Nooijen, L. D. Crosby, E. Brown, G. Cisneros, G. I. Fann,
   H. Fruchtl, J. Garza, K. Hirao, R. A. Kendall, J. A. Nichols, K. Tsemekhman,
    K. Wolinski, J. Anchell, D. E. Bernholdt, P. Borowski, T. Clark, D. Clerc,
   H. Dachsel, M. J. O. Deegan, K. Dyall, D. Elwood, E. Glendening, M. Gutowski,
   A. C. Hess, J. Jaffe, B. G. Johnson, J. Ju, R. Kobayashi, R. Kutteh, Z. Lin,
   R. Littlefield, X. Long, B. Meng, T. Nakajima, S. Niu, L. Pollack, M. Rosing,
   K. Glaesemann, G. Sandrone, M. Stave, H. Taylor, G. Thomas, J. H. van Lenthe,
                               A. T. Wong, Z. Zhang.

 Total times  cpu:     1257.0s     wall:     1272.1s
