 argument  1 = 0e/mol.nwi
                                         
                                         


             Northwest Computational Chemistry Package (NWChem) 7.2.2
             --------------------------------------------------------


                    Environmental Molecular Sciences Laboratory
                       Pacific Northwest National Laboratory
                                Richland, WA 99352

                              Copyright (c) 1994-2022
                       Pacific Northwest National Laboratory
                            Battelle Memorial Institute

             NWChem is an open-source computational chemistry package
                        distributed under the terms of the
                      Educational Community License (ECL) 2.0
             A copy of the license is included with this distribution
                              in the LICENSE.TXT file

                                  ACKNOWLEDGMENT
                                  --------------

            This software and its documentation were developed at the
            EMSL at Pacific Northwest National Laboratory, a multiprogram
            national laboratory, operated for the U.S. Department of Energy
            by Battelle under Contract Number DE-AC05-76RL01830. Support
            for this work was provided by the Department of Energy Office
            of Biological and Environmental Research, Office of Basic
            Energy Sciences, and the Office of Advanced Scientific Computing.


           Job information
           ---------------

    hostname        = r354.ib.bridges2.psc.edu
    program         = nwchem
    date            = Tue Oct  1 17:07:08 2024

    compiled        = Mon_Mar_18_17:03:37_2024
    source          = /ocean/projects/pscstaff/mmadrid/nwchem-7.2.2
    nwchem branch   = 7.2.2
    nwchem revision = 74936fb9
    ga revision     = 5.8.0
    use scalapack   = F
    input           = 0e/mol.nwi
    prefix          = dft.
    data base       = .//dft.db
    status          = startup
    nproc           =       15
    time left       =     -1s



           Memory information
           ------------------

    heap     =   67108864 doubles =    512.0 Mbytes
    stack    =   67108861 doubles =    512.0 Mbytes
    global   =  134217728 doubles =   1024.0 Mbytes (distinct from heap & stack)
    total    =  268435453 doubles =   2048.0 Mbytes
    verify   = yes
    hardfail = no 


           Directory information
           ---------------------

  0 permanent = ./
  0 scratch   = /jet/home/hmt47/nwchem_scratch/




                                NWChem Input Module
                                -------------------


  library name resolved from: environment
  library file name is: </opt/packages/nwchem/nwchem7.2.2/share/nwchem/libraries/>
  


 Summary of "ao basis" -> "" (cartesian)
 ------------------------------------------------------------------------------
       Tag                 Description            Shells   Functions and Types
 ---------------- ------------------------------  ------  ---------------------
 *                        aug-cc-pVTZ                 on all atoms 


  pbe96 is a nonlocal functional; adding pw91lda local functional. 

 Scaling coordinates for geometry "geometry" by  1.889725989
 (inverse scale =  0.529177249)



                             Geometry "geometry" -> ""
                             -------------------------

 Output coordinates in angstroms (scale by  1.889725989 to convert to a.u.)

  No.       Tag          Charge          X              Y              Z
 ---- ---------------- ---------- -------------- -------------- --------------
    1 P                   15.0000    -0.02632344     0.06402140    -0.06240298
    2 O                    8.0000    -0.07254596     1.54356797    -0.52273589
    3 O                    8.0000     1.34911174    -0.65953760    -0.26106562
    4 O                    8.0000    -0.04447960     0.14919821     1.72346066
    5 O                    8.0000    -1.27839989    -0.77528623    -0.42409005
    6 H                    1.0000     0.81211515    -0.28933075     1.86449488

      Atomic Mass 
      ----------- 

      P                 30.973760
      O                 15.994910
      H                  1.007825


 Effective nuclear repulsion energy (a.u.)     248.1763224493

            Nuclear Dipole moment (a.u.) 
            ----------------------------
        X                 Y               Z
 ---------------- ---------------- ----------------
     0.0883520032     5.1675106123     9.5487910517


            XYZ format geometry
            -------------------
     6
 geometry
 P                    -0.02632344     0.06402140    -0.06240298
 O                    -0.07254596     1.54356797    -0.52273589
 O                     1.34911174    -0.65953760    -0.26106562
 O                    -0.04447960     0.14919821     1.72346066
 O                    -1.27839989    -0.77528623    -0.42409005
 H                     0.81211515    -0.28933075     1.86449488

 ==============================================================================
                                internuclear distances
 ------------------------------------------------------------------------------
       center one      |      center two      | atomic units |  angstroms
 ------------------------------------------------------------------------------
    2 O                |   1 P                |     2.92944  |     1.55019
    3 O                |   1 P                |     2.96080  |     1.56679
    4 O                |   1 P                |     3.37880  |     1.78799
    5 O                |   1 P                |     2.92935  |     1.55015
    6 H                |   4 O                |     1.83795  |     0.97260
 ------------------------------------------------------------------------------
                         number of included internuclear distances:          5
 ==============================================================================



 ==============================================================================
                                 internuclear angles
 ------------------------------------------------------------------------------
        center 1       |       center 2       |       center 3       |  degrees
 ------------------------------------------------------------------------------
    2 O                |   1 P                |   3 O                |   115.42
    2 O                |   1 P                |   4 O                |   104.53
    2 O                |   1 P                |   5 O                |   115.05
    3 O                |   1 P                |   4 O                |    99.07
    3 O                |   1 P                |   5 O                |   115.43
    4 O                |   1 P                |   5 O                |   104.52
    1 P                |   4 O                |   6 H                |    96.57
 ------------------------------------------------------------------------------
                            number of included internuclear angles:          7
 ==============================================================================




                                 NWChem DFT Module
                                 -----------------


                      Basis "ao basis" -> "ao basis" (cartesian)
                      -----
  P (Phosphorous)
  ---------------
            Exponent  Coefficients 
       -------------- ---------------------------------------------------------
  1 S  3.12400000E+05  0.000058
  1 S  4.68000000E+04  0.000448
  1 S  1.06500000E+04  0.002349
  1 S  3.01800000E+03  0.009783
  1 S  9.86800000E+02  0.034147
  1 S  3.57400000E+02  0.100204
  1 S  1.39600000E+02  0.234372
  1 S  5.76300000E+01  0.382434
  1 S  2.46000000E+01  0.318088
  1 S  1.01200000E+01  0.070779
  1 S  4.28300000E+00 -0.001818
  1 S  1.80500000E+00  0.002162
  1 S  2.78200000E-01  0.000432

  2 S  3.12400000E+05 -0.000016
  2 S  4.68000000E+04 -0.000122
  2 S  1.06500000E+04 -0.000640
  2 S  3.01800000E+03 -0.002674
  2 S  9.86800000E+02 -0.009498
  2 S  3.57400000E+02 -0.028935
  2 S  1.39600000E+02 -0.074512
  2 S  5.76300000E+01 -0.149938
  2 S  2.46000000E+01 -0.189467
  2 S  1.01200000E+01  0.036327
  2 S  4.28300000E+00  0.528816
  2 S  1.80500000E+00  0.519115
  2 S  2.78200000E-01 -0.009257

  3 S  3.12400000E+05  0.000004
  3 S  4.68000000E+04  0.000033
  3 S  1.06500000E+04  0.000176
  3 S  3.01800000E+03  0.000734
  3 S  9.86800000E+02  0.002618
  3 S  3.57400000E+02  0.007979
  3 S  1.39600000E+02  0.020794
  3 S  5.76300000E+01  0.042445
  3 S  2.46000000E+01  0.056344
  3 S  1.01200000E+01 -0.012736
  3 S  4.28300000E+00 -0.196495
  3 S  1.80500000E+00 -0.353555
  3 S  2.78200000E-01  0.700912

  4 S  6.15800000E-01  1.000000

  5 S  1.05500000E-01  1.000000

  6 S  4.09000000E-02  1.000000

  7 P  5.04900000E+02  0.002337
  7 P  1.19400000E+02  0.018541
  7 P  3.79600000E+01  0.084969
  7 P  1.39500000E+01  0.244615
  7 P  5.45700000E+00  0.422766
  7 P  2.17700000E+00  0.368439
  7 P  2.87700000E-01 -0.003790

  8 P  5.04900000E+02 -0.000555
  8 P  1.19400000E+02 -0.004459
  8 P  3.79600000E+01 -0.020635
  8 P  1.39500000E+01 -0.061769
  8 P  5.45700000E+00 -0.108924
  8 P  2.17700000E+00 -0.105599
  8 P  2.87700000E-01  0.576981

  9 P  8.01000000E-01  1.000000

 10 P  9.71400000E-02  1.000000

 11 P  3.07000000E-02  1.000000

 12 D  2.16000000E-01  1.000000

 13 D  6.52000000E-01  1.000000

 14 D  7.75000000E-02  1.000000

 15 F  4.52000000E-01  1.000000

 16 F  1.65000000E-01  1.000000

  O (Oxygen)
  ----------
            Exponent  Coefficients 
       -------------- ---------------------------------------------------------
  1 S  1.53300000E+04  0.000508
  1 S  2.29900000E+03  0.003929
  1 S  5.22400000E+02  0.020243
  1 S  1.47300000E+02  0.079181
  1 S  4.75500000E+01  0.230687
  1 S  1.67600000E+01  0.433118
  1 S  6.20700000E+00  0.350260
  1 S  6.88200000E-01 -0.008154

  2 S  1.53300000E+04 -0.000115
  2 S  2.29900000E+03 -0.000895
  2 S  5.22400000E+02 -0.004636
  2 S  1.47300000E+02 -0.018724
  2 S  4.75500000E+01 -0.058463
  2 S  1.67600000E+01 -0.136463
  2 S  6.20700000E+00 -0.175740
  2 S  6.88200000E-01  0.603418

  3 S  1.75200000E+00  1.000000

  4 S  2.38400000E-01  1.000000

  5 S  7.37600000E-02  1.000000

  6 P  3.44600000E+01  0.015928
  6 P  7.74900000E+00  0.099740
  6 P  2.28000000E+00  0.310492

  7 P  7.15600000E-01  1.000000

  8 P  2.14000000E-01  1.000000

  9 P  5.97400000E-02  1.000000

 10 D  2.31400000E+00  1.000000

 11 D  6.45000000E-01  1.000000

 12 D  2.14000000E-01  1.000000

 13 F  1.42800000E+00  1.000000

 14 F  5.00000000E-01  1.000000

  H (Hydrogen)
  ------------
            Exponent  Coefficients 
       -------------- ---------------------------------------------------------
  1 S  3.38700000E+01  0.006068
  1 S  5.09500000E+00  0.045308
  1 S  1.15900000E+00  0.202822

  2 S  3.25800000E-01  1.000000

  3 S  1.02700000E-01  1.000000

  4 S  2.52600000E-02  1.000000

  5 P  1.40700000E+00  1.000000

  6 P  3.88000000E-01  1.000000

  7 P  1.02000000E-01  1.000000

  8 D  1.05700000E+00  1.000000

  9 D  2.47000000E-01  1.000000



 Summary of "ao basis" -> "ao basis" (cartesian)
 ------------------------------------------------------------------------------
       Tag                 Description            Shells   Functions and Types
 ---------------- ------------------------------  ------  ---------------------
 P                        aug-cc-pVTZ               16       59   6s5p3d2f
 O                        aug-cc-pVTZ               14       55   5s4p3d2f
 H                        aug-cc-pVTZ                9       25   4s3p2d




 Summary of "ao basis" -> "ao basis" (cartesian)
 ------------------------------------------------------------------------------
       Tag                 Description            Shells   Functions and Types
 ---------------- ------------------------------  ------  ---------------------
 P                        aug-cc-pVTZ               16       59   6s5p3d2f
 O                        aug-cc-pVTZ               14       55   5s4p3d2f
 H                        aug-cc-pVTZ                9       25   4s3p2d


  Caching 1-el integrals 

            General Information
            -------------------
          SCF calculation type: DFT
          Wavefunction type:  spin polarized.
          No. of atoms     :     6
          No. of electrons :    48
           Alpha electrons :    25
            Beta electrons :    23
          Charge           :     0
          Spin multiplicity:     3
          Use of symmetry is: off; symmetry adaption is: off
          Maximum number of iterations: 500
          AO basis - number of functions:   304
                     number of shells:    81
          Convergence on energy requested:  1.00D-06
          Convergence on density requested:  1.00D-05
          Convergence on gradient requested:  5.00D-04

              XC Information
              --------------
          PerdewBurkeErnzerhof Exchange Functional  1.000          
            Perdew 1991 LDA Correlation Functional  1.000 local    
           PerdewBurkeErnz. Correlation Functional  1.000 non-local

             Grid Information
             ----------------
          Grid used for XC integration:  medium    
          Radial quadrature: Mura-Knowles        
          Angular quadrature: Lebedev. 
          Tag              B.-S. Rad. Rad. Pts. Rad. Cut. Ang. Pts.
          ---              ---------- --------- --------- ---------
          P                   1.00       88          13.0       590
          O                   0.60       49          13.0       434
          H                   0.35       45          13.0       434
          Grid pruning is: on 
          Number of quadrature shells:   329
          Spatial weights used:  Erf1

          Convergence Information
          -----------------------
          Convergence aids based upon iterative change in 
          total energy or number of iterations. 
          Levelshifting, if invoked, occurs when the 
          HOMO/LUMO gap drops below (HL_TOL):  1.00D-02
          DIIS, if invoked, will attempt to extrapolate 
          using up to (NFOCK): 10 stored Fock matrices.

                    Damping(40%)  Levelshifting(0.0)       DIIS
                  --------------- ------------------- ---------------
          dE  on:    start            0.00D+00            start   
          dE off:  500 iters          0.00D+00          500 iters 


      Screening Tolerance Information
      -------------------------------
          Density screening/tol_rho:  1.00D-10
          AO Gaussian exp screening on grid/accAOfunc:  14
          CD Gaussian exp screening on grid/accCDfunc:  20
          XC Gaussian exp screening on grid/accXCfunc:  20
          Schwarz screening/accCoul:  1.00D-08


 Forcing the number of linearly dependent vectors to be  0

      Superposition of Atomic Density Guess
      -------------------------------------

 Sum of atomic energies:        -640.28268388
   Time after variat. SCF:      0.7
   Time prior to 1st pass:      0.7

 Grid_pts file          = /jet/home/hmt47/nwchem_scratch//dft.gridpts.00
 Record size in doubles =  12289        No. of grid_pts per rec  =   3070
 Max. records in memory =      6        Max. recs in file   =  67550051


           Memory utilization after 1st SCF pass: 
           Heap Space remaining (MW):       33.47            33472704
          Stack Space remaining (MW):       67.11            67106284

   convergence    iter        energy       DeltaE   RMS-Dens  Diis-err    time
 ---------------- ----- ----------------- --------- --------- ---------  ------
 d=40,ls=0.0,diis     1   -643.1732349601 -8.91D+02  5.50D-03  1.13D+01     1.8
                                                     5.31D-03  9.63D+00
 d=40,ls=0.0,diis     2   -642.7313885128  4.42D-01  3.62D-03  1.90D+00     7.0
                                                     4.09D-03  1.61D+00
 d=40,ls=0.0,diis     3   -642.2602503322  4.71D-01  1.34D-03  8.71D-01    11.2
                                                     2.23D-03  6.41D-01
 d=40,ls=0.0,diis     4   -642.3836813550 -1.23D-01  5.60D-04  3.05D-01    15.3
                                                     1.07D-03  2.53D-01
 d=40,ls=0.0,diis     5   -642.4550841632 -7.14D-02  3.19D-04  8.53D-02    19.4
                                                     7.23D-04  7.59D-02
  Resetting Diis
 d=40,ls=0.0,diis     6   -642.4688893178 -1.38D-02  1.92D-04  4.65D-02    24.1
                                                     4.48D-04  4.45D-02
 d=40,ls=0.0,diis     7   -642.4893848238 -2.05D-02  4.48D-04  1.14D-02    28.2
                                                     2.19D-03  1.12D-02
 d=40,ls=0.0,diis     8   -642.3126580742  1.77D-01  2.60D-04  3.40D-01    32.4
                                                     1.45D-03  2.84D-01
 d=40,ls=0.0,diis     9   -642.4512205704 -1.39D-01  1.60D-04  7.73D-02    37.0
                                                     7.36D-04  7.61D-02
 d=40,ls=0.0,diis    10   -642.4898921754 -3.87D-02  8.02D-05  8.23D-03    41.3
                                                     3.32D-04  8.46D-03
 d=40,ls=0.0,diis    11   -642.4954278747 -5.54D-03  3.70D-05  2.12D-03    45.5
                                                     1.15D-04  2.35D-03
 d=40,ls=0.0,diis    12   -642.4971667378 -1.74D-03  2.81D-05  1.22D-03    49.9
                                                     7.48D-05  1.27D-03
 d=40,ls=0.0,diis    13   -642.4980267259 -8.60D-04  3.45D-05  6.50D-04    54.0
                                                     6.55D-05  6.63D-04
 d=40,ls=0.0,diis    14   -642.4985244478 -4.98D-04  1.34D-05  1.20D-04    58.2
                                                     2.72D-05  1.24D-04
 d=40,ls=0.0,diis    15   -642.4986792304 -1.55D-04  5.84D-06  2.57D-05    62.2
                                                     1.33D-05  2.65D-05
 d=40,ls=0.0,diis    16   -642.4987352730 -5.60D-05  2.85D-06  4.32D-06    66.4
                                                     5.76D-06  4.29D-06
 d=40,ls=0.0,diis    17   -642.4987556502 -2.04D-05  1.27D-06  6.26D-07    70.5
                                                     2.46D-06  6.07D-07
 d=40,ls=0.0,diis    18   -642.4987634392 -7.79D-06  4.08D-07  7.08D-08    74.7
                                                     7.87D-07  6.83D-08
 d=40,ls=0.0,diis    19   -642.4987664924 -3.05D-06  1.76D-07  1.53D-08    78.9
                                                     3.56D-07  1.52D-08
 d=40,ls=0.0,diis    20   -642.4987677107 -1.22D-06  8.18D-08  3.13D-09    83.1
                                                     1.77D-07  3.18D-09
 d=40,ls=0.0,diis    21   -642.4987681973 -4.87D-07  3.39D-08  5.40D-10    87.3
                                                     8.63D-08  5.62D-10


         Total DFT energy =     -642.498768197309
      One electron energy =    -1379.032134099178
           Coulomb energy =      545.758017703732
    Exchange-Corr. energy =      -57.400974251139
 Nuclear repulsion energy =      248.176322449276

 Numeric. integr. density =       48.000001444642

     Total iterative time =     86.6s



                    DFT Final Alpha Molecular Orbital Analysis
                    ------------------------------------------

 Vector    1  Occ=1.000000D+00  E=-7.648108D+01
              MO Center= -2.6D-02,  6.4D-02, -6.2D-02, r^2= 4.1D-03
   Bfn.  Coefficient  Atom+Function         Bfn.  Coefficient  Atom+Function  
  ----- ------------  ---------------      ----- ------------  ---------------
     1      1.004980  1 P  s                  3      0.044761  1 P  s          
     2      0.033257  1 P  s          

 Vector    2  Occ=1.000000D+00  E=-1.886403D+01
              MO Center= -4.4D-02,  1.5D-01,  1.7D+00, r^2= 1.5D-02
   Bfn.  Coefficient  Atom+Function         Bfn.  Coefficient  Atom+Function  
  ----- ------------  ---------------      ----- ------------  ---------------
   170      0.981056  4 O  s                  5     -0.073227  1 P  s          
   172      0.064172  4 O  s                174     -0.038022  4 O  s          
    63      0.033914  2 O  s                183     -0.033955  4 O  pz         
   228      0.033924  5 O  s                118      0.033459  3 O  s          
    18      0.031979  1 P  pz                51      0.030982  1 P  fxxy       

 Vector    3  Occ=1.000000D+00  E=-1.885324D+01
              MO Center= -1.2D-01,  1.4D+00, -5.2D-01, r^2= 3.0D-01
   Bfn.  Coefficient  Atom+Function         Bfn.  Coefficient  Atom+Function  
  ----- ------------  ---------------      ----- ------------  ---------------
    60      0.956758  2 O  s                225      0.204340  5 O  s          
    62      0.062890  2 O  s                 63     -0.046553  2 O  s          
    64     -0.045991  2 O  s                119     -0.031052  3 O  s          
    92      0.025087  2 O  dyy        

 Vector    4  Occ=1.000000D+00  E=-1.885319D+01
              MO Center= -1.2D+00, -6.7D-01, -4.3D-01, r^2= 3.0D-01
   Bfn.  Coefficient  Atom+Function         Bfn.  Coefficient  Atom+Function  
  ----- ------------  ---------------      ----- ------------  ---------------
   225      0.956386  5 O  s                 60     -0.202588  2 O  s          
   227      0.062359  5 O  s                228     -0.048548  5 O  s          
   229     -0.040000  5 O  s          

 Vector    5  Occ=1.000000D+00  E=-1.883280D+01
              MO Center=  1.3D+00, -6.6D-01, -2.6D-01, r^2= 1.5D-02
   Bfn.  Coefficient  Atom+Function         Bfn.  Coefficient  Atom+Function  
  ----- ------------  ---------------      ----- ------------  ---------------
   115      0.979147  3 O  s                117      0.065397  3 O  s          
    16     -0.043147  1 P  px               119     -0.041132  3 O  s          
     5     -0.040120  1 P  s                 64     -0.039964  2 O  s          
   229     -0.039967  5 O  s                118     -0.039768  3 O  s          
   282      0.034393  6 H  s                 37      0.033377  1 P  dyy        

 Vector    6  Occ=1.000000D+00  E=-6.465321D+00
              MO Center= -2.7D-02,  6.4D-02, -6.2D-02, r^2= 9.1D-02
   Bfn.  Coefficient  Atom+Function         Bfn.  Coefficient  Atom+Function  
  ----- ------------  ---------------      ----- ------------  ---------------
     2      0.899793  1 P  s                  4      0.103928  1 P  s          
     3     -0.056027  1 P  s          

 Vector    7  Occ=1.000000D+00  E=-4.683949D+00
              MO Center= -2.6D-02,  6.4D-02, -6.3D-02, r^2= 8.3D-02
   Bfn.  Coefficient  Atom+Function         Bfn.  Coefficient  Atom+Function  
  ----- ------------  ---------------      ----- ------------  ---------------
     9      1.052741  1 P  pz                12      0.229725  1 P  pz         
    42     -0.102133  1 P  fxxz              47     -0.101715  1 P  fyyz       
    49     -0.100764  1 P  fzzz               8      0.078726  1 P  py         
     7     -0.065433  1 P  px               183      0.037024  4 O  pz         
     5      0.029224  1 P  s          

 Vector    8  Occ=1.000000D+00  E=-4.680920D+00
              MO Center= -2.6D-02,  6.4D-02, -6.2D-02, r^2= 8.3D-02
   Bfn.  Coefficient  Atom+Function         Bfn.  Coefficient  Atom+Function  
  ----- ------------  ---------------      ----- ------------  ---------------
     8      0.950721  1 P  py                 7      0.490781  1 P  px         
    11      0.231788  1 P  py                10      0.119661  1 P  px         
    48     -0.095936  1 P  fyzz              41     -0.094004  1 P  fxxy       
    46     -0.094110  1 P  fyyy              45     -0.049690  1 P  fxzz       
    40     -0.048606  1 P  fxxx              43     -0.048303  1 P  fxyy       

 Vector    9  Occ=1.000000D+00  E=-4.680666D+00
              MO Center= -2.6D-02,  6.4D-02, -6.2D-02, r^2= 8.3D-02
   Bfn.  Coefficient  Atom+Function         Bfn.  Coefficient  Atom+Function  
  ----- ------------  ---------------      ----- ------------  ---------------
     7      0.949099  1 P  px                 8     -0.485786  1 P  py         
    10      0.231023  1 P  px                11     -0.118151  1 P  py         
     9      0.097211  1 P  pz                45     -0.096018  1 P  fxzz       
    40     -0.093548  1 P  fxxx              43     -0.093416  1 P  fxyy       
    48      0.048973  1 P  fyzz              41      0.048041  1 P  fxxy       

 Vector   10  Occ=1.000000D+00  E=-1.039710D+00
              MO Center= -2.1D-02,  7.8D-02,  3.4D-01, r^2= 2.2D+00
   Bfn.  Coefficient  Atom+Function         Bfn.  Coefficient  Atom+Function  
  ----- ------------  ---------------      ----- ------------  ---------------
   171      0.264748  4 O  s                  3      0.259758  1 P  s          
    61      0.204184  2 O  s                226      0.204126  5 O  s          
   116      0.175291  3 O  s                173      0.155306  4 O  s          
    63      0.117202  2 O  s                228      0.117156  5 O  s          
   118      0.105181  3 O  s                172      0.078762  4 O  s          

 Vector   11  Occ=1.000000D+00  E=-9.847661D-01
              MO Center= -1.2D-01,  1.5D-01,  8.5D-01, r^2= 2.1D+00
   Bfn.  Coefficient  Atom+Function         Bfn.  Coefficient  Atom+Function  
  ----- ------------  ---------------      ----- ------------  ---------------
   171      0.385587  4 O  s                173      0.210557  4 O  s          
    61     -0.207795  2 O  s                226     -0.207534  5 O  s          
    63     -0.136364  2 O  s                228     -0.136200  5 O  s          
   172      0.108655  4 O  s                  3     -0.104754  1 P  s          
    18     -0.087130  1 P  pz                12      0.084780  1 P  pz         

 Vector   12  Occ=1.000000D+00  E=-9.608146D-01
              MO Center= -5.7D-01,  3.3D-01, -4.1D-01, r^2= 1.8D+00
   Bfn.  Coefficient  Atom+Function         Bfn.  Coefficient  Atom+Function  
  ----- ------------  ---------------      ----- ------------  ---------------
    61      0.356466  2 O  s                226     -0.356589  5 O  s          
    63      0.212578  2 O  s                228     -0.212644  5 O  s          
    11      0.140656  1 P  py                17     -0.134963  1 P  py         
    62      0.100582  2 O  s                227     -0.100617  5 O  s          
    64      0.085795  2 O  s                229     -0.085815  5 O  s          

 Vector   13  Occ=1.000000D+00  E=-9.465502D-01
              MO Center=  8.2D-01, -3.8D-01, -1.8D-01, r^2= 1.4D+00
   Bfn.  Coefficient  Atom+Function         Bfn.  Coefficient  Atom+Function  
  ----- ------------  ---------------      ----- ------------  ---------------
   116      0.444398  3 O  s                118      0.271287  3 O  s          
    61     -0.146590  2 O  s                226     -0.146688  5 O  s          
    10      0.134638  1 P  px                16     -0.127710  1 P  px         
   117      0.125674  3 O  s                119      0.106445  3 O  s          
   171     -0.104725  4 O  s                 63     -0.090677  2 O  s          

 Vector   14  Occ=1.000000D+00  E=-5.646956D-01
              MO Center= -5.5D-02,  1.1D-01,  5.6D-01, r^2= 2.7D+00
   Bfn.  Coefficient  Atom+Function         Bfn.  Coefficient  Atom+Function  
  ----- ------------  ---------------      ----- ------------  ---------------
     3      0.358462  1 P  s                  5      0.174389  1 P  s          
   177     -0.161369  4 O  pz               180     -0.161339  4 O  pz         
    61     -0.151180  2 O  s                226     -0.151212  5 O  s          
    63     -0.134409  2 O  s                228     -0.134420  5 O  s          
   116     -0.121975  3 O  s                175     -0.118347  4 O  px         

 Vector   15  Occ=1.000000D+00  E=-4.989917D-01
              MO Center=  7.8D-02,  4.0D-02,  6.3D-01, r^2= 2.8D+00
   Bfn.  Coefficient  Atom+Function         Bfn.  Coefficient  Atom+Function  
  ----- ------------  ---------------      ----- ------------  ---------------
     3      0.211541  1 P  s                175      0.193477  4 O  px         
   178      0.182299  4 O  px               174     -0.166252  4 O  s          
   281      0.139679  6 H  s                116     -0.136626  3 O  s          
    12     -0.134184  1 P  pz               282      0.117805  6 H  s          
   118     -0.116674  3 O  s                171     -0.113200  4 O  s          

 Vector   16  Occ=1.000000D+00  E=-4.596628D-01
              MO Center= -6.4D-02,  1.0D-01,  3.5D-01, r^2= 2.9D+00
   Bfn.  Coefficient  Atom+Function         Bfn.  Coefficient  Atom+Function  
  ----- ------------  ---------------      ----- ------------  ---------------
    12      0.171840  1 P  pz               173     -0.166509  4 O  s          
   180     -0.145383  4 O  pz               177     -0.143310  4 O  pz         
   171     -0.129993  4 O  s                234     -0.129162  5 O  py         
    69      0.127531  2 O  py               231     -0.126576  5 O  py         
    66      0.125517  2 O  py                10      0.116406  1 P  px         

 Vector   17  Occ=1.000000D+00  E=-4.551256D-01
              MO Center= -2.8D-01,  1.9D-01, -2.2D-01, r^2= 2.8D+00
   Bfn.  Coefficient  Atom+Function         Bfn.  Coefficient  Atom+Function  
  ----- ------------  ---------------      ----- ------------  ---------------
    11      0.190579  1 P  py               230     -0.174769  5 O  px         
   233     -0.174605  5 O  px                63     -0.166131  2 O  s          
   228      0.166501  5 O  s                 66     -0.159274  2 O  py         
    69     -0.157749  2 O  py                61     -0.123015  2 O  s          
   226      0.123285  5 O  s                124      0.122249  3 O  py         

 Vector   18  Occ=1.000000D+00  E=-4.317547D-01
              MO Center=  2.8D-01, -8.3D-02,  1.7D-01, r^2= 3.0D+00
   Bfn.  Coefficient  Atom+Function         Bfn.  Coefficient  Atom+Function  
  ----- ------------  ---------------      ----- ------------  ---------------
   173      0.190745  4 O  s                120     -0.171914  3 O  px         
   123     -0.170983  3 O  px                10      0.157543  1 P  px         
   118     -0.152218  3 O  s                231     -0.129154  5 O  py         
   234     -0.129515  5 O  py               175     -0.122687  4 O  px         
    68      0.118320  2 O  px                65      0.115115  2 O  px         

 Vector   19  Occ=1.000000D+00  E=-3.901840D-01
              MO Center= -2.8D-01,  2.3D-01,  6.9D-01, r^2= 2.6D+00
   Bfn.  Coefficient  Atom+Function         Bfn.  Coefficient  Atom+Function  
  ----- ------------  ---------------      ----- ------------  ---------------
   179      0.248174  4 O  py               176      0.242638  4 O  py         
   182      0.153855  4 O  py               235     -0.139001  5 O  pz         
   232     -0.134045  5 O  pz                70      0.132512  2 O  pz         
   178      0.128753  4 O  px                67      0.127198  2 O  pz         
    66      0.126487  2 O  py               175      0.125881  4 O  px         

 Vector   20  Occ=1.000000D+00  E=-3.822634D-01
              MO Center= -4.2D-01,  2.6D-01, -3.2D-01, r^2= 2.7D+00
   Bfn.  Coefficient  Atom+Function         Bfn.  Coefficient  Atom+Function  
  ----- ------------  ---------------      ----- ------------  ---------------
    68      0.176383  2 O  px                65      0.172693  2 O  px         
    16      0.170987  1 P  px               235      0.170735  5 O  pz         
   232      0.168742  5 O  pz                70      0.167687  2 O  pz         
    67      0.166507  2 O  pz               230      0.149261  5 O  px         
   233      0.143098  5 O  px                29      0.122308  1 P  dxy        

 Vector   21  Occ=1.000000D+00  E=-3.795174D-01
              MO Center=  3.1D-01, -1.2D-01, -3.6D-01, r^2= 2.7D+00
   Bfn.  Coefficient  Atom+Function         Bfn.  Coefficient  Atom+Function  
  ----- ------------  ---------------      ----- ------------  ---------------
   124      0.239691  3 O  py               121      0.233054  3 O  py         
   231      0.179107  5 O  py               234      0.175609  5 O  py         
    17      0.155917  1 P  py               127      0.144512  3 O  py         
    66      0.140455  2 O  py                69      0.130767  2 O  py         
   123      0.124623  3 O  px               120      0.121176  3 O  px         

 Vector   22  Occ=1.000000D+00  E=-3.623630D-01
              MO Center= -1.2D-01,  1.2D-01,  2.2D-02, r^2= 3.1D+00
   Bfn.  Coefficient  Atom+Function         Bfn.  Coefficient  Atom+Function  
  ----- ------------  ---------------      ----- ------------  ---------------
   177      0.178200  4 O  pz               180      0.177472  4 O  pz         
    70      0.160974  2 O  pz               235      0.159887  5 O  pz         
    67      0.158924  2 O  pz               232      0.157565  5 O  pz         
   120     -0.153251  3 O  px               123     -0.138134  3 O  px         
    68     -0.128676  2 O  px                65     -0.126140  2 O  px         

 Vector   23  Occ=1.000000D+00  E=-3.475764D-01
              MO Center= -4.3D-01,  2.9D-01,  2.8D-01, r^2= 2.9D+00
   Bfn.  Coefficient  Atom+Function         Bfn.  Coefficient  Atom+Function  
  ----- ------------  ---------------      ----- ------------  ---------------
   179     -0.217692  4 O  py               176     -0.212411  4 O  py         
   235     -0.212937  5 O  pz               232     -0.206567  5 O  pz         
    70      0.205062  2 O  pz                67      0.198880  2 O  pz         
   238     -0.152873  5 O  pz                73      0.147411  2 O  pz         
   182     -0.146894  4 O  py               178     -0.113042  4 O  px         

 Vector   24  Occ=1.000000D+00  E=-3.347863D-01
              MO Center= -1.1D-02,  4.6D-02, -3.2D-01, r^2= 2.9D+00
   Bfn.  Coefficient  Atom+Function         Bfn.  Coefficient  Atom+Function  
  ----- ------------  ---------------      ----- ------------  ---------------
    68      0.225308  2 O  px                65      0.220615  2 O  px         
   124     -0.211440  3 O  py               121     -0.205239  3 O  py         
   234      0.181871  5 O  py               231      0.177831  5 O  py         
    71      0.153876  2 O  px               127     -0.144275  3 O  py         
   233     -0.137227  5 O  px               230     -0.134719  5 O  px         

 Vector   25  Occ=1.000000D+00  E=-3.266380D-01
              MO Center=  9.4D-01, -4.4D-01,  1.2D-02, r^2= 1.9D+00
   Bfn.  Coefficient  Atom+Function         Bfn.  Coefficient  Atom+Function  
  ----- ------------  ---------------      ----- ------------  ---------------
   125      0.344464  3 O  pz               122      0.340404  3 O  pz         
   128      0.239737  3 O  pz               180      0.117560  4 O  pz         
   177      0.114776  4 O  pz               175     -0.090399  4 O  px         
   178     -0.088926  4 O  px                30      0.082455  1 P  dxz        
   173      0.076455  4 O  s                 16      0.072674  1 P  px         

 Vector   26  Occ=0.000000D+00  E=-5.632252D-02
              MO Center=  4.4D-01, -1.4D-01,  8.5D-01, r^2= 7.2D+00
   Bfn.  Coefficient  Atom+Function         Bfn.  Coefficient  Atom+Function  
  ----- ------------  ---------------      ----- ------------  ---------------
   283      0.550442  6 H  s                 64     -0.449824  2 O  s          
   229     -0.449953  5 O  s                  5      0.410783  1 P  s          
     6      0.402115  1 P  s                119     -0.388410  3 O  s          
    18     -0.338832  1 P  pz               282      0.334843  6 H  s          
     3      0.267536  1 P  s                 34      0.211918  1 P  dxx        

 Vector   27  Occ=0.000000D+00  E=-1.184180D-02
              MO Center=  3.5D-01, -1.2D-01,  2.7D-01, r^2= 8.7D+00
   Bfn.  Coefficient  Atom+Function         Bfn.  Coefficient  Atom+Function  
  ----- ------------  ---------------      ----- ------------  ---------------
     6      1.903495  1 P  s                  5      0.934745  1 P  s          
    18     -0.697855  1 P  pz               283     -0.677449  6 H  s          
    64     -0.543725  2 O  s                229     -0.543285  5 O  s          
    21     -0.437285  1 P  pz                63     -0.286775  2 O  s          
   228     -0.286637  5 O  s                 16     -0.261850  1 P  px         

 Vector   28  Occ=0.000000D+00  E= 8.130995D-03
              MO Center=  4.0D-01, -1.3D-01,  6.6D-01, r^2= 7.2D+00
   Bfn.  Coefficient  Atom+Function         Bfn.  Coefficient  Atom+Function  
  ----- ------------  ---------------      ----- ------------  ---------------
     6      1.493101  1 P  s                  5      1.117460  1 P  s          
    16     -0.930931  1 P  px               283     -0.924562  6 H  s          
    18      0.816673  1 P  pz                64     -0.615075  2 O  s          
   229     -0.614746  5 O  s                174     -0.604538  4 O  s          
    19     -0.536940  1 P  px                17      0.519217  1 P  py         

 Vector   29  Occ=0.000000D+00  E= 1.837583D-02
              MO Center=  1.1D-01,  4.8D-03,  1.5D-01, r^2= 1.4D+01
   Bfn.  Coefficient  Atom+Function         Bfn.  Coefficient  Atom+Function  
  ----- ------------  ---------------      ----- ------------  ---------------
    20      1.559051  1 P  py                64     -0.977138  2 O  s          
   229      0.976161  5 O  s                 19      0.809776  1 P  px         
    17      0.731172  1 P  py                16      0.378985  1 P  px         
   130     -0.260075  3 O  py               185     -0.170720  4 O  py         
    58     -0.166635  1 P  fyzz              63     -0.165797  2 O  s          

 Vector   30  Occ=0.000000D+00  E= 2.468303D-02
              MO Center= -5.6D-01,  3.6D-01,  4.7D-01, r^2= 1.3D+01
   Bfn.  Coefficient  Atom+Function         Bfn.  Coefficient  Atom+Function  
  ----- ------------  ---------------      ----- ------------  ---------------
   119     -1.853116  3 O  s                 16      1.797354  1 P  px         
    19      1.500616  1 P  px               283     -0.975853  6 H  s          
    17     -0.921787  1 P  py                 6      0.830766  1 P  s          
    20     -0.775265  1 P  py                64      0.615802  2 O  s          
   229      0.616664  5 O  s                  5      0.596518  1 P  s          

 Vector   31  Occ=0.000000D+00  E= 3.810264D-02
              MO Center=  2.1D-01, -1.2D-01, -1.6D+00, r^2= 1.3D+01
   Bfn.  Coefficient  Atom+Function         Bfn.  Coefficient  Atom+Function  
  ----- ------------  ---------------      ----- ------------  ---------------
    18      2.756468  1 P  pz               174     -2.070757  4 O  s          
    21      2.056996  1 P  pz               283     -1.846890  6 H  s          
     5     -1.392305  1 P  s                 64      1.286552  2 O  s          
   229      1.285489  5 O  s                  6      1.046266  1 P  s          
   282     -0.841139  6 H  s                 39      0.835072  1 P  dzz        

 Vector   32  Occ=0.000000D+00  E= 5.245604D-02
              MO Center=  3.7D-01, -5.6D-02,  1.9D+00, r^2= 1.1D+01
   Bfn.  Coefficient  Atom+Function         Bfn.  Coefficient  Atom+Function  
  ----- ------------  ---------------      ----- ------------  ---------------
     6      3.293742  1 P  s                174      2.974492  4 O  s          
   282     -2.118712  6 H  s                283     -1.720595  6 H  s          
     5     -1.363631  1 P  s                 39     -0.971818  1 P  dzz        
    37     -0.911490  1 P  dyy              184      0.831482  4 O  px         
   290      0.821397  6 H  px                36     -0.730120  1 P  dxz        

 Vector   33  Occ=0.000000D+00  E= 5.698158D-02
              MO Center=  3.5D-01, -7.5D-02,  1.3D+00, r^2= 1.5D+01
   Bfn.  Coefficient  Atom+Function         Bfn.  Coefficient  Atom+Function  
  ----- ------------  ---------------      ----- ------------  ---------------
     6     10.496302  1 P  s                283     -2.703836  6 H  s          
    21      2.237744  1 P  pz                 5      1.869849  1 P  s          
    39     -1.712874  1 P  dzz              119     -1.451229  3 O  s          
    34     -1.432359  1 P  dxx               37     -1.394863  1 P  dyy        
   174     -1.361355  4 O  s                 64     -1.319169  2 O  s          

 Vector   34  Occ=0.000000D+00  E= 7.803877D-02
              MO Center= -5.4D-02,  8.3D-02,  5.6D-02, r^2= 1.2D+01
   Bfn.  Coefficient  Atom+Function         Bfn.  Coefficient  Atom+Function  
  ----- ------------  ---------------      ----- ------------  ---------------
    17      7.490533  1 P  py                16      3.899711  1 P  px         
    64     -3.204056  2 O  s                229      3.195978  5 O  s          
    58     -2.119330  1 P  fyzz              56     -2.064464  1 P  fyyy       
    51     -2.046864  1 P  fxxy              75      1.645181  2 O  py         
   239      1.461835  5 O  px                53     -1.149771  1 P  fxyy       

 Vector   35  Occ=0.000000D+00  E= 7.911890D-02
              MO Center=  4.8D-01, -1.7D-01,  6.6D-01, r^2= 1.2D+01
   Bfn.  Coefficient  Atom+Function         Bfn.  Coefficient  Atom+Function  
  ----- ------------  ---------------      ----- ------------  ---------------
    18      4.772511  1 P  pz                 6      4.117781  1 P  s          
     5     -3.709053  1 P  s                119      3.330210  3 O  s          
    34     -2.144748  1 P  dxx              186      1.973513  4 O  pz         
    37     -1.566115  1 P  dyy              229      1.485126  5 O  s          
   283     -1.485421  6 H  s                 52     -1.472848  1 P  fxxz       

 Vector   36  Occ=0.000000D+00  E= 8.068513D-02
              MO Center= -3.6D-01,  2.3D-01, -2.3D-01, r^2= 1.2D+01
   Bfn.  Coefficient  Atom+Function         Bfn.  Coefficient  Atom+Function  
  ----- ------------  ---------------      ----- ------------  ---------------
    18      5.184711  1 P  pz               174     -4.693653  4 O  s          
     6      3.292578  1 P  s                282      2.254564  6 H  s          
    64      2.196899  2 O  s                229      2.182794  5 O  s          
     5     -2.085978  1 P  s                 37     -2.026417  1 P  dyy        
   119      1.843440  3 O  s                 57     -1.649489  1 P  fyyz       

 Vector   37  Occ=0.000000D+00  E= 8.292736D-02
              MO Center=  4.3D-01, -1.7D-01,  1.1D-01, r^2= 1.5D+01
   Bfn.  Coefficient  Atom+Function         Bfn.  Coefficient  Atom+Function  
  ----- ------------  ---------------      ----- ------------  ---------------
    16      6.743827  1 P  px               119     -4.767760  3 O  s          
   282      3.744951  6 H  s                174     -3.509007  4 O  s          
    17     -3.418846  1 P  py                55     -2.136882  1 P  fxzz       
   229      2.085271  5 O  s                 64      2.050967  2 O  s          
   129      2.034139  3 O  px                50     -1.946079  1 P  fxxx       

 Vector   38  Occ=0.000000D+00  E= 8.318647D-02
              MO Center= -1.2D-02,  5.7D-02, -1.1D-01, r^2= 9.2D+00
   Bfn.  Coefficient  Atom+Function         Bfn.  Coefficient  Atom+Function  
  ----- ------------  ---------------      ----- ------------  ---------------
    17      6.225805  1 P  py                64     -4.675050  2 O  s          
   229      4.668442  5 O  s                 16      3.203152  1 P  px         
    58     -1.781441  1 P  fyzz              51     -1.559316  1 P  fxxy       
    56     -1.523878  1 P  fyyy              35     -1.388067  1 P  dxy        
    75      1.247010  2 O  py               239      0.991475  5 O  px         

 Vector   39  Occ=0.000000D+00  E= 8.763055D-02
              MO Center= -1.2D-01,  1.4D-01,  5.6D-01, r^2= 1.3D+01
   Bfn.  Coefficient  Atom+Function         Bfn.  Coefficient  Atom+Function  
  ----- ------------  ---------------      ----- ------------  ---------------
    38      1.530732  1 P  dyz              185     -1.194318  4 O  py         
   130      0.972291  3 O  py               239     -0.902994  5 O  px         
    35     -0.893360  1 P  dxy               17     -0.866885  1 P  py         
    36      0.866389  1 P  dxz              229     -0.775299  5 O  s          
    64      0.770902  2 O  s                 37      0.729357  1 P  dyy        

 Vector   40  Occ=0.000000D+00  E= 1.214303D-01
              MO Center= -1.2D-01,  1.2D-01,  1.2D-01, r^2= 1.7D+01
   Bfn.  Coefficient  Atom+Function         Bfn.  Coefficient  Atom+Function  
  ----- ------------  ---------------      ----- ------------  ---------------
     5     20.647957  1 P  s                 64     -7.370089  2 O  s          
   229     -7.368154  5 O  s                 37      5.770769  1 P  dyy        
     6     -5.652799  1 P  s                 34      5.669933  1 P  dxx        
   119     -5.509695  3 O  s                 39      5.134328  1 P  dzz        
   174     -3.102970  4 O  s                 75      2.911823  2 O  py         

 Vector   41  Occ=0.000000D+00  E= 1.448073D-01
              MO Center=  1.5D-03,  8.4D-02,  7.6D-01, r^2= 1.6D+01
   Bfn.  Coefficient  Atom+Function         Bfn.  Coefficient  Atom+Function  
  ----- ------------  ---------------      ----- ------------  ---------------
     5      7.442650  1 P  s                  6      5.352595  1 P  s          
    18      4.908394  1 P  pz               119     -4.722421  3 O  s          
   282     -4.154102  6 H  s                283     -3.177948  6 H  s          
   174     -2.913794  4 O  s                 21      2.749221  1 P  pz         
   186      2.684922  4 O  pz                37      1.956656  1 P  dyy        

 Vector   42  Occ=0.000000D+00  E= 1.500816D-01
              MO Center=  3.3D-01, -1.1D-01,  2.2D-01, r^2= 1.4D+01
   Bfn.  Coefficient  Atom+Function         Bfn.  Coefficient  Atom+Function  
  ----- ------------  ---------------      ----- ------------  ---------------
   174      7.139835  4 O  s                282     -6.254333  6 H  s          
    16      4.519703  1 P  px               119     -3.316234  3 O  s          
   184      2.583641  4 O  px                17     -2.399059  1 P  py         
   131     -2.282763  3 O  pz                 5     -2.035901  1 P  s          
    64      1.922592  2 O  s                229      1.923109  5 O  s          

 Vector   43  Occ=0.000000D+00  E= 1.530055D-01
              MO Center= -5.1D-01,  3.2D-01,  3.4D-02, r^2= 1.3D+01
   Bfn.  Coefficient  Atom+Function         Bfn.  Coefficient  Atom+Function  
  ----- ------------  ---------------      ----- ------------  ---------------
   241     -1.682736  5 O  pz                76      1.663233  2 O  pz         
   185     -1.358346  4 O  py                38     -0.749451  1 P  dyz        
   184     -0.702219  4 O  px                74      0.513194  2 O  px         
   240      0.436512  5 O  py                54      0.399418  1 P  fxyz       
   182      0.370564  4 O  py                36     -0.367887  1 P  dxz        

 Vector   44  Occ=0.000000D+00  E= 1.603909D-01
              MO Center= -2.8D-02,  5.7D-02, -2.6D-01, r^2= 1.3D+01
   Bfn.  Coefficient  Atom+Function         Bfn.  Coefficient  Atom+Function  
  ----- ------------  ---------------      ----- ------------  ---------------
    74      1.523237  2 O  px               130     -1.488307  3 O  py         
   239     -1.290951  5 O  px                17     -1.203596  1 P  py         
    64      0.978542  2 O  s                229     -0.979325  5 O  s          
   240      0.961916  5 O  py                53     -0.777279  1 P  fxyy       
   129     -0.774569  3 O  px                16     -0.630393  1 P  px         

 Vector   45  Occ=0.000000D+00  E= 1.688022D-01
              MO Center=  3.4D-01, -1.4D-01, -3.7D-01, r^2= 1.6D+01
   Bfn.  Coefficient  Atom+Function         Bfn.  Coefficient  Atom+Function  
  ----- ------------  ---------------      ----- ------------  ---------------
   174      3.961809  4 O  s                 21     -2.672796  1 P  pz         
    18     -2.645539  1 P  pz                34     -2.409412  1 P  dxx        
     6      2.335797  1 P  s                 37     -2.059752  1 P  dyy        
    16      1.981495  1 P  px                64      1.903158  2 O  s          
   229      1.904915  5 O  s                282     -1.821891  6 H  s          

 Vector   46  Occ=0.000000D+00  E= 1.737741D-01
              MO Center=  2.3D-01, -7.4D-02, -1.4D-01, r^2= 1.6D+01
   Bfn.  Coefficient  Atom+Function         Bfn.  Coefficient  Atom+Function  
  ----- ------------  ---------------      ----- ------------  ---------------
    20      3.651018  1 P  py               130     -2.146113  3 O  py         
   185     -1.922349  4 O  py                19      1.902036  1 P  px         
   240     -1.647911  5 O  py                75     -1.609705  2 O  py         
    38      1.409353  1 P  dyz               35      1.179540  1 P  dxy        
   129     -1.115785  3 O  px               184     -1.002244  4 O  px         

 Vector   47  Occ=0.000000D+00  E= 1.796094D-01
              MO Center= -9.0D-01,  5.1D-01, -3.5D-01, r^2= 1.6D+01
   Bfn.  Coefficient  Atom+Function         Bfn.  Coefficient  Atom+Function  
  ----- ------------  ---------------      ----- ------------  ---------------
     6      7.503647  1 P  s                  5     -5.338179  1 P  s          
   174      5.038809  4 O  s                 37     -5.008385  1 P  dyy        
    64      4.314117  2 O  s                229      4.291998  5 O  s          
   282     -4.268008  6 H  s                 39     -3.865819  1 P  dzz        
    19     -3.614278  1 P  px                34     -3.550035  1 P  dxx        

 Vector   48  Occ=0.000000D+00  E= 1.825014D-01
              MO Center= -1.8D-02,  7.5D-02,  3.1D-01, r^2= 1.2D+01
   Bfn.  Coefficient  Atom+Function         Bfn.  Coefficient  Atom+Function  
  ----- ------------  ---------------      ----- ------------  ---------------
   229      2.359176  5 O  s                 64     -2.315481  2 O  s          
    17      2.269430  1 P  py                75      2.226916  2 O  py         
   240      2.009446  5 O  py                20     -1.646854  1 P  py         
   239      1.370665  5 O  px                16      1.202036  1 P  px         
    38      1.193333  1 P  dyz              291      1.031310  6 H  py         

 Vector   49  Occ=0.000000D+00  E= 1.928923D-01
              MO Center= -3.1D-02,  3.6D-02, -7.8D-01, r^2= 1.1D+01
   Bfn.  Coefficient  Atom+Function         Bfn.  Coefficient  Atom+Function  
  ----- ------------  ---------------      ----- ------------  ---------------
    16      4.774627  1 P  px               282     -4.466560  6 H  s          
   119     -3.832300  3 O  s                 39      3.805927  1 P  dzz        
     6     -2.599344  1 P  s                 17     -2.383756  1 P  py         
    18      2.256683  1 P  pz               174      2.115658  4 O  s          
   129      1.938144  3 O  px                21      1.770874  1 P  pz         

 Vector   50  Occ=0.000000D+00  E= 2.059920D-01
              MO Center=  5.7D-01, -2.1D-01,  9.1D-01, r^2= 1.4D+01
   Bfn.  Coefficient  Atom+Function         Bfn.  Coefficient  Atom+Function  
  ----- ------------  ---------------      ----- ------------  ---------------
     6     21.587479  1 P  s                 34     -9.093064  1 P  dxx        
    37     -8.358981  1 P  dyy                5     -7.675523  1 P  s          
    39     -6.894488  1 P  dzz              119      6.764895  3 O  s          
   174     -3.379792  4 O  s                 16     -3.340729  1 P  px         
   129     -3.068885  3 O  px               283     -2.925966  6 H  s          

 Vector   51  Occ=0.000000D+00  E= 2.235575D-01
              MO Center=  1.2D-01, -4.3D-03,  1.2D-01, r^2= 1.1D+01
   Bfn.  Coefficient  Atom+Function         Bfn.  Coefficient  Atom+Function  
  ----- ------------  ---------------      ----- ------------  ---------------
     6      5.765765  1 P  s                 39     -4.937370  1 P  dzz        
    16     -3.422084  1 P  px               119      3.323916  3 O  s          
   282      3.272028  6 H  s                 34     -3.116962  1 P  dxx        
    36      3.132063  1 P  dxz              174      2.927779  4 O  s          
    35      2.195808  1 P  dxy              131     -2.136655  3 O  pz         

 Vector   52  Occ=0.000000D+00  E= 2.344692D-01
              MO Center=  1.8D-01, -3.0D-02,  1.8D-01, r^2= 1.3D+01
   Bfn.  Coefficient  Atom+Function         Bfn.  Coefficient  Atom+Function  
  ----- ------------  ---------------      ----- ------------  ---------------
    16     14.242548  1 P  px               119    -13.559836  3 O  s          
    64      8.173085  2 O  s                229      8.184680  5 O  s          
    17     -7.264346  1 P  py                35     -6.966582  1 P  dxy        
   174      5.348229  4 O  s                282     -3.994118  6 H  s          
   129      3.770254  3 O  px                37     -3.700673  1 P  dyy        

 Vector   53  Occ=0.000000D+00  E= 2.458263D-01
              MO Center= -5.9D-01,  3.9D-01,  4.9D-01, r^2= 1.2D+01
   Bfn.  Coefficient  Atom+Function         Bfn.  Coefficient  Atom+Function  
  ----- ------------  ---------------      ----- ------------  ---------------
   174     13.675428  4 O  s                 18     -5.964519  1 P  pz         
    64     -4.551334  2 O  s                229     -4.388862  5 O  s          
   186     -3.931045  4 O  pz                 5     -3.171085  1 P  s          
    36     -2.666280  1 P  dxz               39     -2.578792  1 P  dzz        
    76     -2.453780  2 O  pz               241     -2.415349  5 O  pz         

 Vector   54  Occ=0.000000D+00  E= 2.467386D-01
              MO Center= -2.9D-01,  2.0D-01, -8.7D-02, r^2= 1.3D+01
   Bfn.  Coefficient  Atom+Function         Bfn.  Coefficient  Atom+Function  
  ----- ------------  ---------------      ----- ------------  ---------------
    64     13.686908  2 O  s                229    -13.729221  5 O  s          
    17    -10.414564  1 P  py                16     -5.421615  1 P  px         
    75     -4.657240  2 O  py                38      4.335570  1 P  dyz        
    35      3.986844  1 P  dxy              240     -3.716777  5 O  py         
   239     -3.130151  5 O  px                34      2.775070  1 P  dxx        

 Vector   55  Occ=0.000000D+00  E= 2.556254D-01
              MO Center=  1.8D-01, -4.0D-02,  7.7D-02, r^2= 8.3D+00
   Bfn.  Coefficient  Atom+Function         Bfn.  Coefficient  Atom+Function  
  ----- ------------  ---------------      ----- ------------  ---------------
    38      3.568086  1 P  dyz               64     -2.262413  2 O  s          
   229      2.269525  5 O  s                 36      2.004088  1 P  dxz        
    35     -1.795822  1 P  dxy               76     -1.562411  2 O  pz         
   130      1.564124  3 O  py               241      1.499609  5 O  pz         
    37      1.486200  1 P  dyy              291     -1.411980  6 H  py         

 Vector   56  Occ=0.000000D+00  E= 2.896252D-01
              MO Center=  8.3D-01, -3.6D-01,  4.3D-01, r^2= 1.3D+01
   Bfn.  Coefficient  Atom+Function         Bfn.  Coefficient  Atom+Function  
  ----- ------------  ---------------      ----- ------------  ---------------
     5     24.183097  1 P  s                119    -15.794286  3 O  s          
    64    -12.886144  2 O  s                229    -12.876870  5 O  s          
   174    -12.536584  4 O  s                 34      9.446433  1 P  dxx        
    37      9.029552  1 P  dyy              282      7.889321  6 H  s          
    39      7.633317  1 P  dzz               18     -5.359730  1 P  pz         

 Vector   57  Occ=0.000000D+00  E= 2.983283D-01
              MO Center= -2.8D-01,  2.2D-01,  5.1D-01, r^2= 1.1D+01
   Bfn.  Coefficient  Atom+Function         Bfn.  Coefficient  Atom+Function  
  ----- ------------  ---------------      ----- ------------  ---------------
   174      9.081905  4 O  s                282     -7.517085  6 H  s          
    16     -7.307570  1 P  px                35     -5.513633  1 P  dxy        
    18     -3.698768  1 P  pz                17      3.658985  1 P  py         
   184      3.415555  4 O  px                53      3.373218  1 P  fxyy       
    50      3.250759  1 P  fxxx              34      3.228810  1 P  dxx        

 Vector   58  Occ=0.000000D+00  E= 3.024462D-01
              MO Center=  1.5D-01,  2.1D-03,  5.4D-01, r^2= 1.1D+01
   Bfn.  Coefficient  Atom+Function         Bfn.  Coefficient  Atom+Function  
  ----- ------------  ---------------      ----- ------------  ---------------
    17      5.468935  1 P  py                35      3.975253  1 P  dxy        
    16      2.859242  1 P  px                34      2.794157  1 P  dxx        
    37     -2.735164  1 P  dyy               53     -2.715924  1 P  fxyy       
    56     -2.489635  1 P  fyyy             291     -2.448625  6 H  py         
    51     -2.248262  1 P  fxxy              58     -2.084127  1 P  fyzz       

 Vector   59  Occ=0.000000D+00  E= 3.065650D-01
              MO Center= -1.6D-01,  1.6D-01,  6.1D-01, r^2= 1.3D+01
   Bfn.  Coefficient  Atom+Function         Bfn.  Coefficient  Atom+Function  
  ----- ------------  ---------------      ----- ------------  ---------------
     5     20.985708  1 P  s                 64    -14.026274  2 O  s          
   229    -14.061076  5 O  s                  6     -7.970754  1 P  s          
    16     -7.770987  1 P  px                18     -7.808281  1 P  pz         
    37      6.951269  1 P  dyy               34      5.906038  1 P  dxx        
    36      4.952244  1 P  dxz               39      4.955850  1 P  dzz        

 Vector   60  Occ=0.000000D+00  E= 3.260527D-01
              MO Center=  1.4D+00, -6.6D-01,  6.0D-01, r^2= 9.7D+00
   Bfn.  Coefficient  Atom+Function         Bfn.  Coefficient  Atom+Function  
  ----- ------------  ---------------      ----- ------------  ---------------
   119     20.274693  3 O  s                  5    -15.999990  1 P  s          
    16    -11.009458  1 P  px                34     -7.575491  1 P  dxx        
    37     -7.515551  1 P  dyy               18      6.939531  1 P  pz         
    64      6.493515  2 O  s                229      6.497078  5 O  s          
    17      6.025325  1 P  py               129     -4.699861  3 O  px         

 Vector   61  Occ=0.000000D+00  E= 3.348516D-01
              MO Center= -5.5D-01,  3.4D-01, -3.7D-04, r^2= 1.1D+01
   Bfn.  Coefficient  Atom+Function         Bfn.  Coefficient  Atom+Function  
  ----- ------------  ---------------      ----- ------------  ---------------
    17     30.077873  1 P  py                16     15.613057  1 P  px         
    64    -15.581795  2 O  s                229     15.542942  5 O  s          
    58     -8.677736  1 P  fyzz              51     -7.994122  1 P  fxxy       
    56     -7.867054  1 P  fyyy              35     -4.565879  1 P  dxy        
    55     -4.523451  1 P  fxzz              50     -4.363640  1 P  fxxx       

 Vector   62  Occ=0.000000D+00  E= 3.465399D-01
              MO Center=  9.0D-02,  4.4D-02,  9.1D-01, r^2= 1.1D+01
   Bfn.  Coefficient  Atom+Function         Bfn.  Coefficient  Atom+Function  
  ----- ------------  ---------------      ----- ------------  ---------------
    18     20.756158  1 P  pz                 5     20.650718  1 P  s          
   174    -16.618606  4 O  s                 64     -8.897308  2 O  s          
   229     -8.938179  5 O  s                 39      8.572137  1 P  dzz        
    16     -8.154609  1 P  px                57     -6.527166  1 P  fyyz       
    52     -6.029112  1 P  fxxz              37      5.593776  1 P  dyy        

 Vector   63  Occ=0.000000D+00  E= 3.780338D-01
              MO Center= -1.3D-01,  1.3D-01,  2.5D-01, r^2= 8.7D+00
   Bfn.  Coefficient  Atom+Function         Bfn.  Coefficient  Atom+Function  
  ----- ------------  ---------------      ----- ------------  ---------------
   174    -18.900654  4 O  s                 18     17.771860  1 P  pz         
   282     10.760650  6 H  s                 59     -5.528150  1 P  fzzz       
     5     -5.465614  1 P  s                 39      5.382319  1 P  dzz        
    52     -5.380552  1 P  fxxz              57     -3.759255  1 P  fyyz       
    63      3.528574  2 O  s                228      3.525314  5 O  s          

 Vector   64  Occ=0.000000D+00  E= 3.829192D-01
              MO Center= -1.2D-01,  1.1D-01, -6.5D-02, r^2= 7.3D+00
   Bfn.  Coefficient  Atom+Function         Bfn.  Coefficient  Atom+Function  
  ----- ------------  ---------------      ----- ------------  ---------------
    38      4.871575  1 P  dyz               36      2.683926  1 P  dxz        
    17      2.366110  1 P  py                35     -1.738021  1 P  dxy        
    54     -1.694345  1 P  fxyz              76     -1.555300  2 O  pz         
   241      1.541760  5 O  pz                37      1.519334  1 P  dyy        
    73     -1.433408  2 O  pz               238      1.429858  5 O  pz         

 Vector   65  Occ=0.000000D+00  E= 4.055706D-01
              MO Center=  2.7D-01, -3.0D-02,  1.4D+00, r^2= 9.4D+00
   Bfn.  Coefficient  Atom+Function         Bfn.  Coefficient  Atom+Function  
  ----- ------------  ---------------      ----- ------------  ---------------
   282     17.903117  6 H  s                  5    -10.715721  1 P  s          
    18     -6.235147  1 P  pz                64      4.962529  2 O  s          
   229      4.961677  5 O  s                  6     -4.866618  1 P  s          
   281     -3.620981  6 H  s                 37     -3.425838  1 P  dyy        
    35     -2.994994  1 P  dxy              184     -2.761342  4 O  px         

 Vector   66  Occ=0.000000D+00  E= 4.298959D-01
              MO Center=  9.8D-02,  4.9D-03,  8.9D-02, r^2= 9.8D+00
   Bfn.  Coefficient  Atom+Function         Bfn.  Coefficient  Atom+Function  
  ----- ------------  ---------------      ----- ------------  ---------------
    16     29.869390  1 P  px               282    -18.983094  6 H  s          
   119    -17.094314  3 O  s                 17    -15.044530  1 P  py         
    35    -11.599939  1 P  dxy               18     11.102316  1 P  pz         
   174      7.939213  4 O  s                 39      7.188282  1 P  dzz        
    34      6.971944  1 P  dxx               55     -6.631945  1 P  fxzz       

 Vector   67  Occ=0.000000D+00  E= 4.715393D-01
              MO Center=  1.5D-02,  4.1D-02, -9.2D-02, r^2= 6.4D+00
   Bfn.  Coefficient  Atom+Function         Bfn.  Coefficient  Atom+Function  
  ----- ------------  ---------------      ----- ------------  ---------------
    16     11.359774  1 P  px                18      9.016866  1 P  pz         
   119     -6.254996  3 O  s                 17     -5.524373  1 P  py         
    35     -5.511304  1 P  dxy              282     -5.338414  6 H  s          
   118     -4.676309  3 O  s                  5      4.634397  1 P  s          
    34      4.240321  1 P  dxx               59     -3.836363  1 P  fzzz       

 Vector   68  Occ=0.000000D+00  E= 4.917007D-01
              MO Center=  3.4D-01, -8.9D-02,  7.4D-01, r^2= 6.1D+00
   Bfn.  Coefficient  Atom+Function         Bfn.  Coefficient  Atom+Function  
  ----- ------------  ---------------      ----- ------------  ---------------
    35      3.486331  1 P  dxy               17     -3.104319  1 P  py         
    54     -2.989047  1 P  fxyz             229     -2.604774  5 O  s          
    64      2.511436  2 O  s                 34      2.453556  1 P  dxx        
    38      2.311664  1 P  dyz               37     -2.287528  1 P  dyy        
    63      2.182383  2 O  s                228     -2.152623  5 O  s          

 Vector   69  Occ=0.000000D+00  E= 4.948771D-01
              MO Center=  4.0D-01, -1.4D-01,  5.0D-01, r^2= 9.9D+00
   Bfn.  Coefficient  Atom+Function         Bfn.  Coefficient  Atom+Function  
  ----- ------------  ---------------      ----- ------------  ---------------
     6     18.696320  1 P  s                 37    -17.432929  1 P  dyy        
     5     16.599631  1 P  s                 64     15.450647  2 O  s          
   229     15.430896  5 O  s                 34    -13.760164  1 P  dxx        
   118    -11.686226  3 O  s                 39    -11.237203  1 P  dzz        
    16      9.420892  1 P  px                18      8.899885  1 P  pz         

 Vector   70  Occ=0.000000D+00  E= 5.457496D-01
              MO Center=  3.2D-01, -1.1D-01,  1.4D-01, r^2= 5.7D+00
   Bfn.  Coefficient  Atom+Function         Bfn.  Coefficient  Atom+Function  
  ----- ------------  ---------------      ----- ------------  ---------------
    17      2.232202  1 P  py                58     -1.637237  1 P  fyzz       
    38     -1.550177  1 P  dyz               64     -1.292041  2 O  s          
   229      1.273014  5 O  s                 53      1.176200  1 P  fxyy       
    16      1.122935  1 P  px                23     -1.039347  1 P  dxy        
    35     -0.952477  1 P  dxy               63     -0.931683  2 O  s          

 Vector   71  Occ=0.000000D+00  E= 5.480175D-01
              MO Center=  2.0D-01, -4.0D-02,  8.6D-02, r^2= 7.1D+00
   Bfn.  Coefficient  Atom+Function         Bfn.  Coefficient  Atom+Function  
  ----- ------------  ---------------      ----- ------------  ---------------
   282      6.513243  6 H  s                119      5.980262  3 O  s          
    35      5.251457  1 P  dxy               18      4.381310  1 P  pz         
    54     -4.092960  1 P  fxyz              34     -3.676977  1 P  dxx        
   174     -3.171679  4 O  s                 57     -3.118145  1 P  fyyz       
    16     -2.717503  1 P  px                36      2.615617  1 P  dxz        

 Vector   72  Occ=0.000000D+00  E= 5.525088D-01
              MO Center= -2.8D-01,  2.0D-01, -4.9D-03, r^2= 5.2D+00
   Bfn.  Coefficient  Atom+Function         Bfn.  Coefficient  Atom+Function  
  ----- ------------  ---------------      ----- ------------  ---------------
    53      2.875232  1 P  fxyy              50     -1.301118  1 P  fxxx       
    58      1.207456  1 P  fyzz              51     -0.916655  1 P  fxxy       
    90      0.737917  2 O  dxy               71     -0.674589  2 O  px         
    55      0.622175  1 P  fxzz             127      0.542272  3 O  py         
   237     -0.518301  5 O  py               130      0.504658  3 O  py         

 Vector   73  Occ=0.000000D+00  E= 5.638229D-01
              MO Center=  6.7D-02, -8.9D-03, -6.3D-01, r^2= 6.3D+00
   Bfn.  Coefficient  Atom+Function         Bfn.  Coefficient  Atom+Function  
  ----- ------------  ---------------      ----- ------------  ---------------
     5     11.586977  1 P  s                 18      7.943266  1 P  pz         
    16      4.176550  1 P  px               173     -4.018814  4 O  s          
   282     -3.778776  6 H  s                174     -3.475607  4 O  s          
   292      3.482838  6 H  pz                36      2.870152  1 P  dxz        
    63     -2.670983  2 O  s                228     -2.671218  5 O  s          

 Vector   74  Occ=0.000000D+00  E= 5.774481D-01
              MO Center=  4.2D-01, -1.6D-01,  1.6D-01, r^2= 8.1D+00
   Bfn.  Coefficient  Atom+Function         Bfn.  Coefficient  Atom+Function  
  ----- ------------  ---------------      ----- ------------  ---------------
    53      4.824061  1 P  fxyy              64     -2.509184  2 O  s          
   229      2.510975  5 O  s                 35     -1.769320  1 P  dxy        
   130      1.555419  3 O  py                38     -1.500737  1 P  dyz        
    56      1.470091  1 P  fyyy              90      1.339943  2 O  dxy        
    34     -1.235231  1 P  dxx              182     -1.225927  4 O  py         

 Vector   75  Occ=0.000000D+00  E= 5.887101D-01
              MO Center= -5.4D-01,  3.1D-01, -4.8D-01, r^2= 7.5D+00
   Bfn.  Coefficient  Atom+Function         Bfn.  Coefficient  Atom+Function  
  ----- ------------  ---------------      ----- ------------  ---------------
   229     -1.723068  5 O  s                 64      1.709785  2 O  s          
    26      1.184511  1 P  dyz               75     -1.151501  2 O  py         
   240     -0.999089  5 O  py                54     -0.939696  1 P  fxyz       
    73      0.878885  2 O  pz               238     -0.880381  5 O  pz         
   241      0.882026  5 O  pz                58     -0.858865  1 P  fyzz       

 Vector   76  Occ=0.000000D+00  E= 5.935865D-01
              MO Center= -5.0D-01,  3.3D-01,  3.7D-01, r^2= 8.0D+00
   Bfn.  Coefficient  Atom+Function         Bfn.  Coefficient  Atom+Function  
  ----- ------------  ---------------      ----- ------------  ---------------
   229     -3.435229  5 O  s                 64      3.409096  2 O  s          
   240     -1.977645  5 O  py                51     -1.839343  1 P  fxxy       
    35      1.675202  1 P  dxy               75     -1.476648  2 O  py         
    56     -1.457658  1 P  fyyy              38      1.428434  1 P  dyz        
    50     -1.411812  1 P  fxxx              63      1.395687  2 O  s          

 Vector   77  Occ=0.000000D+00  E= 5.984360D-01
              MO Center=  4.4D-01, -1.7D-01,  1.7D-01, r^2= 8.3D+00
   Bfn.  Coefficient  Atom+Function         Bfn.  Coefficient  Atom+Function  
  ----- ------------  ---------------      ----- ------------  ---------------
   174      6.375345  4 O  s                 52     -2.486964  1 P  fxxz       
    18      2.367130  1 P  pz               173      2.308892  4 O  s          
   119     -2.263823  3 O  s                 64      2.208554  2 O  s          
   229      2.177008  5 O  s                  5     -2.114381  1 P  s          
    57     -2.100199  1 P  fyyz              59     -2.066078  1 P  fzzz       

 Vector   78  Occ=0.000000D+00  E= 6.123365D-01
              MO Center= -9.1D-02,  1.1D-01,  2.1D-01, r^2= 7.0D+00
   Bfn.  Coefficient  Atom+Function         Bfn.  Coefficient  Atom+Function  
  ----- ------------  ---------------      ----- ------------  ---------------
     5     17.711873  1 P  s                  6     -8.797331  1 P  s          
   282     -5.956047  6 H  s                 34      5.899220  1 P  dxx        
   119     -5.772680  3 O  s                173     -5.611571  4 O  s          
    37      5.528183  1 P  dyy               39      5.238346  1 P  dzz        
   281      4.661379  6 H  s                 51     -3.554854  1 P  fxxy       

 Vector   79  Occ=0.000000D+00  E= 6.222671D-01
              MO Center= -3.5D-01,  2.5D-01,  3.0D-01, r^2= 9.5D+00
   Bfn.  Coefficient  Atom+Function         Bfn.  Coefficient  Atom+Function  
  ----- ------------  ---------------      ----- ------------  ---------------
     5      7.396070  1 P  s                  6     -2.934852  1 P  s          
   118     -2.190629  3 O  s                119     -2.138278  3 O  s          
    21     -2.104574  1 P  pz                34      2.037844  1 P  dxx        
    16      1.924675  1 P  px                18     -1.893922  1 P  pz         
   281     -1.882280  6 H  s                204     -1.656038  4 O  dzz        

 Vector   80  Occ=0.000000D+00  E= 6.283358D-01
              MO Center=  1.9D-01, -5.2D-02, -1.9D-01, r^2= 9.3D+00
   Bfn.  Coefficient  Atom+Function         Bfn.  Coefficient  Atom+Function  
  ----- ------------  ---------------      ----- ------------  ---------------
    64      4.595484  2 O  s                229     -4.590166  5 O  s          
    20     -1.690594  1 P  py                56     -1.492263  1 P  fyyy       
    35      1.383692  1 P  dxy               51     -1.366944  1 P  fxxy       
    17     -1.330961  1 P  py                53     -1.131358  1 P  fxyy       
    92     -1.015977  2 O  dyy               54      1.000635  1 P  fxyz       

 Vector   81  Occ=0.000000D+00  E= 6.414989D-01
              MO Center= -5.0D-02,  1.1D-01,  6.5D-01, r^2= 8.2D+00
   Bfn.  Coefficient  Atom+Function         Bfn.  Coefficient  Atom+Function  
  ----- ------------  ---------------      ----- ------------  ---------------
    18      8.001075  1 P  pz               174      7.267775  4 O  s          
   119     -6.158294  3 O  s                  5     -6.056786  1 P  s          
   282     -5.329886  6 H  s                 16      4.536391  1 P  px         
    59     -3.980131  1 P  fzzz              52     -3.864237  1 P  fxxz       
    57     -3.531571  1 P  fyyz              35     -2.934819  1 P  dxy        

 Vector   82  Occ=0.000000D+00  E= 6.532362D-01
              MO Center=  2.5D-02,  4.7D-02,  1.9D-01, r^2= 7.2D+00
   Bfn.  Coefficient  Atom+Function         Bfn.  Coefficient  Atom+Function  
  ----- ------------  ---------------      ----- ------------  ---------------
    17      5.303815  1 P  py                58     -3.864888  1 P  fyzz       
    38     -2.916582  1 P  dyz               16      2.751501  1 P  px         
    51     -2.541236  1 P  fxxy              56     -2.340826  1 P  fyyy       
    55     -2.027096  1 P  fxzz             291      1.862756  6 H  py         
    64      1.703792  2 O  s                229     -1.710156  5 O  s          

 Vector   83  Occ=0.000000D+00  E= 6.578417D-01
              MO Center= -4.7D-01,  2.8D-01, -3.1D-01, r^2= 7.9D+00
   Bfn.  Coefficient  Atom+Function         Bfn.  Coefficient  Atom+Function  
  ----- ------------  ---------------      ----- ------------  ---------------
     5      7.189474  1 P  s                 64      5.630524  2 O  s          
   229      5.635042  5 O  s                282      5.136667  6 H  s          
   118     -4.666554  3 O  s                183      4.147431  4 O  pz         
    37     -4.026613  1 P  dyy               63     -4.002513  2 O  s          
   228     -4.001380  5 O  s                 18     -3.937158  1 P  pz         

 Vector   84  Occ=0.000000D+00  E= 6.769132D-01
              MO Center=  4.3D-01, -1.7D-01,  8.7D-02, r^2= 6.8D+00
   Bfn.  Coefficient  Atom+Function         Bfn.  Coefficient  Atom+Function  
  ----- ------------  ---------------      ----- ------------  ---------------
     5     18.307720  1 P  s                 16     12.950967  1 P  px         
    18      8.957058  1 P  pz               118     -7.056645  3 O  s          
    57     -6.891296  1 P  fyyz              63     -6.404687  2 O  s          
   228     -6.405178  5 O  s                 17     -6.363894  1 P  py         
    53     -5.796132  1 P  fxyy             183      5.688566  4 O  pz         

 Vector   85  Occ=0.000000D+00  E= 6.829184D-01
              MO Center= -1.6D-01,  1.4D-01,  1.6D-01, r^2= 7.5D+00
   Bfn.  Coefficient  Atom+Function         Bfn.  Coefficient  Atom+Function  
  ----- ------------  ---------------      ----- ------------  ---------------
    53     -2.429232  1 P  fxyy              58     -2.350374  1 P  fyzz       
    38      2.213358  1 P  dyz               17      1.959178  1 P  py         
    64      1.522380  2 O  s                 35     -1.508318  1 P  dxy        
   229     -1.489947  5 O  s                 56     -1.330277  1 P  fyyy       
    71      1.290554  2 O  px                36      1.279389  1 P  dxz        

 Vector   86  Occ=0.000000D+00  E= 7.030865D-01
              MO Center=  1.2D-01, -9.9D-03, -6.1D-02, r^2= 7.0D+00
   Bfn.  Coefficient  Atom+Function         Bfn.  Coefficient  Atom+Function  
  ----- ------------  ---------------      ----- ------------  ---------------
     5      6.934242  1 P  s                 18     -4.745911  1 P  pz         
   119     -3.959443  3 O  s                 59      3.643997  1 P  fzzz       
    64     -3.645375  2 O  s                229     -3.642455  5 O  s          
    37      3.513740  1 P  dyy               39      3.352367  1 P  dzz        
     6     -3.307732  1 P  s                 34      3.009050  1 P  dxx        

 Vector   87  Occ=0.000000D+00  E= 7.076132D-01
              MO Center=  9.9D-02,  2.4D-02,  5.4D-01, r^2= 7.2D+00
   Bfn.  Coefficient  Atom+Function         Bfn.  Coefficient  Atom+Function  
  ----- ------------  ---------------      ----- ------------  ---------------
   282     20.997928  6 H  s                  5     10.851607  1 P  s          
    16    -10.244425  1 P  px               174     -9.692394  4 O  s          
   281     -8.256883  6 H  s                 18     -7.082124  1 P  pz         
    51     -5.195633  1 P  fxxy              17      5.035614  1 P  py         
    63     -4.869363  2 O  s                228     -4.867566  5 O  s          

 Vector   88  Occ=0.000000D+00  E= 7.238548D-01
              MO Center= -1.2D-01,  1.1D-01, -9.9D-02, r^2= 6.7D+00
   Bfn.  Coefficient  Atom+Function         Bfn.  Coefficient  Atom+Function  
  ----- ------------  ---------------      ----- ------------  ---------------
    17     15.477888  1 P  py                16      8.036068  1 P  px         
    64     -7.694978  2 O  s                229      7.673358  5 O  s          
    56     -6.814735  1 P  fyyy              51     -6.654333  1 P  fxxy       
    58     -5.491055  1 P  fyzz              53     -4.645734  1 P  fxyy       
    50     -3.155469  1 P  fxxx              55     -2.814280  1 P  fxzz       

 Vector   89  Occ=0.000000D+00  E= 7.338877D-01
              MO Center= -3.4D-01,  2.3D-01,  1.4D-02, r^2= 9.6D+00
   Bfn.  Coefficient  Atom+Function         Bfn.  Coefficient  Atom+Function  
  ----- ------------  ---------------      ----- ------------  ---------------
    16     19.872460  1 P  px                64     15.641232  2 O  s          
   229     15.667675  5 O  s                  5    -14.853813  1 P  s          
    18     10.961702  1 P  pz                17     -9.840332  1 P  py         
   119     -8.023010  3 O  s                 55     -6.555294  1 P  fxzz       
    50     -5.846319  1 P  fxxx              53     -5.401126  1 P  fxyy       

 Vector   90  Occ=0.000000D+00  E= 7.474233D-01
              MO Center=  6.8D-01, -3.0D-01, -1.2D-02, r^2= 7.9D+00
   Bfn.  Coefficient  Atom+Function         Bfn.  Coefficient  Atom+Function  
  ----- ------------  ---------------      ----- ------------  ---------------
    16     22.145741  1 P  px               119    -21.836810  3 O  s          
    18    -15.405929  1 P  pz                17    -12.160740  1 P  py         
    55     -9.054012  1 P  fxzz              50     -8.283893  1 P  fxxx       
    53     -8.317453  1 P  fxyy              34      5.864923  1 P  dxx        
   174      5.594237  4 O  s                 57      5.562006  1 P  fyyz       

 Vector   91  Occ=0.000000D+00  E= 7.607960D-01
              MO Center= -4.3D-01,  2.7D-01, -9.5D-02, r^2= 8.7D+00
   Bfn.  Coefficient  Atom+Function         Bfn.  Coefficient  Atom+Function  
  ----- ------------  ---------------      ----- ------------  ---------------
    17     39.424953  1 P  py                16     20.469891  1 P  px         
    64    -19.237694  2 O  s                229     19.227054  5 O  s          
    58    -13.602486  1 P  fyzz              51    -11.520331  1 P  fxxy       
    56    -11.493110  1 P  fyyy              55     -7.269352  1 P  fxzz       
[...]
     5     15.071286  1 P  s                178     14.266139  4 O  px         
   181      9.709204  4 O  px               282     -9.340539  6 H  s          
   183      7.273744  4 O  pz               210     -7.214244  4 O  fxzz       
   179     -7.107695  4 O  py               208     -7.076311  4 O  fxyy       
   205     -7.023563  4 O  fxxx             180      6.931069  4 O  pz         

 Vector  296  Occ=0.000000D+00  E= 1.545433D+01
              MO Center=  6.6D-02,  3.9D-02,  4.9D-01, r^2= 4.1D+00
   Bfn.  Coefficient  Atom+Function         Bfn.  Coefficient  Atom+Function  
  ----- ------------  ---------------      ----- ------------  ---------------
     3     12.388718  1 P  s                180      9.616339  4 O  pz         
     2      8.468316  1 P  s                183      7.455627  4 O  pz         
   123     -5.294364  3 O  px               171     -5.217843  4 O  s          
   118     -5.106670  3 O  s                214     -5.122771  4 O  fzzz       
   207     -5.082299  4 O  fxxz             212     -5.052089  4 O  fyyz       

 Vector  297  Occ=0.000000D+00  E= 1.571317D+01
              MO Center= -6.6D-01,  3.8D-01, -4.8D-01, r^2= 3.0D+00
   Bfn.  Coefficient  Atom+Function         Bfn.  Coefficient  Atom+Function  
  ----- ------------  ---------------      ----- ------------  ---------------
    69     10.355002  2 O  py               233      9.013533  5 O  px         
    72      8.887597  2 O  py               236      8.105585  5 O  px         
    11      6.125685  1 P  py               234      5.575370  5 O  py         
    96     -5.474514  2 O  fxxy             101     -5.418799  2 O  fyyy       
   103     -5.418822  2 O  fyzz             113     -5.007555  2 O  fyzz       

 Vector  298  Occ=0.000000D+00  E= 1.580332D+01
              MO Center=  5.5D-01, -2.5D-01, -3.7D-01, r^2= 3.2D+00
   Bfn.  Coefficient  Atom+Function         Bfn.  Coefficient  Atom+Function  
  ----- ------------  ---------------      ----- ------------  ---------------
   126     10.096969  3 O  px               123      9.838036  3 O  px         
   116     -6.452184  3 O  s                 16      6.039619  1 P  px         
    69     -5.935075  2 O  py               127     -5.390724  3 O  py         
   150     -5.271669  3 O  fxxx             153     -5.279938  3 O  fxyy       
   155     -5.239465  3 O  fxzz             165     -5.237703  3 O  fxzz       

 Vector  299  Occ=0.000000D+00  E= 1.665241D+01
              MO Center=  3.9D-02,  7.0D-02,  8.7D-01, r^2= 2.9D+00
   Bfn.  Coefficient  Atom+Function         Bfn.  Coefficient  Atom+Function  
  ----- ------------  ---------------      ----- ------------  ---------------
     5     24.768917  1 P  s                173    -12.369490  4 O  s          
   118    -11.978179  3 O  s                 63    -11.246363  2 O  s          
   228    -11.247719  5 O  s                171    -10.832322  4 O  s          
   183      9.288427  4 O  pz                72      8.939147  2 O  py         
   126      7.887706  3 O  px               236     -7.477238  5 O  px         

 Vector  300  Occ=0.000000D+00  E= 1.679929D+01
              MO Center=  2.4D-01, -4.4D-02,  7.7D-01, r^2= 2.5D+00
   Bfn.  Coefficient  Atom+Function         Bfn.  Coefficient  Atom+Function  
  ----- ------------  ---------------      ----- ------------  ---------------
   118     11.873577  3 O  s                  5     -9.603270  1 P  s          
   228      8.814724  5 O  s                 63      8.758105  2 O  s          
   173     -7.526863  4 O  s                183     -6.492479  4 O  pz         
     3     -5.647594  1 P  s                204      4.862794  4 O  dzz        
   180     -4.100647  4 O  pz                 2     -3.932440  1 P  s          

 Vector  301  Occ=0.000000D+00  E= 1.682155D+01
              MO Center= -6.4D-01,  3.7D-01, -4.4D-01, r^2= 2.1D+00
   Bfn.  Coefficient  Atom+Function         Bfn.  Coefficient  Atom+Function  
  ----- ------------  ---------------      ----- ------------  ---------------
    63      8.787609  2 O  s                228     -8.727201  5 O  s          
    69      4.567424  2 O  py                61      4.326811  2 O  s          
   226     -4.309238  5 O  s                 72      4.231092  2 O  py         
   233      3.953958  5 O  px               236      3.895028  5 O  px         
    86     -3.834992  2 O  dyy              251      3.804525  5 O  dyy        

 Vector  302  Occ=0.000000D+00  E= 1.704501D+01
              MO Center=  1.2D-01, -2.6D-02, -3.5D-01, r^2= 2.8D+00
   Bfn.  Coefficient  Atom+Function         Bfn.  Coefficient  Atom+Function  
  ----- ------------  ---------------      ----- ------------  ---------------
    63      8.155247  2 O  s                228      8.165701  5 O  s          
   118     -8.028058  3 O  s                 16     -6.649490  1 P  px         
   282      5.942173  6 H  s                126     -4.899362  3 O  px         
   123     -4.520471  3 O  px                72      4.304711  2 O  py         
    69      4.215306  2 O  py                35      4.050022  1 P  dxy        

 Vector  303  Occ=0.000000D+00  E= 1.771803D+01
              MO Center=  2.2D-01, -4.6D-02,  4.1D-01, r^2= 3.6D+00
   Bfn.  Coefficient  Atom+Function         Bfn.  Coefficient  Atom+Function  
  ----- ------------  ---------------      ----- ------------  ---------------
     5     49.587608  1 P  s                 72     19.197699  2 O  py         
   183     18.976493  4 O  pz               126     18.711910  3 O  px         
   236    -16.172482  5 O  px                63    -12.412881  2 O  s          
   228    -12.414825  5 O  s                 64     11.493222  2 O  s          
   229     11.492937  5 O  s                119     11.308506  3 O  s          

 Vector  304  Occ=0.000000D+00  E= 2.100931D+01
              MO Center= -3.4D-02,  7.8D-02,  1.8D-01, r^2= 3.5D+00
   Bfn.  Coefficient  Atom+Function         Bfn.  Coefficient  Atom+Function  
  ----- ------------  ---------------      ----- ------------  ---------------
     3     48.650355  1 P  s                  2     32.841287  1 P  s          
    72     11.684049  2 O  py               173    -10.687953  4 O  s          
   236     -9.723429  5 O  px               126      9.638718  3 O  px         
    18      8.906986  1 P  pz                51      7.533103  1 P  fxxy       
    12     -7.321726  1 P  pz                33     -6.760205  1 P  dzz        


   alpha - beta orbital overlaps 
   ----------------------------- 


   alpha      1      2      3      4      5      6      7      8      9     10
    beta      1      2      3      4      5      6      7      8      9     10
 overlap   1.000  1.000  1.000  1.000  1.000  1.000  1.000  1.000  1.000  0.996


   alpha     11     12     13     14     15     16     17     18     19     20
    beta     11     12     13     14     15     16     17     18     19     20
 overlap   0.994  1.000  0.998  0.998  0.996  0.981  0.989  0.985  0.986  0.969


   alpha     21     22     23     24     25     26     27     28     29     30
    beta     21     22     24     25     23     26     27     28     29     30
 overlap   0.955  0.956  0.942  0.930  0.977  0.998  0.991  0.991  0.995  0.993


   alpha     31     32     33     34     35     36     37     38     39     40
    beta     31     32     33     34     35     35     37     39     38     40
 overlap   0.993  0.995  0.991  0.976  0.668  0.728  0.816  0.830  0.858  0.999


   alpha     41     42     43     44     45     46     47     48     49     50
    beta     41     42     43     44     45     46     47     48     49     50
 overlap   0.998  0.999  0.999  0.999  0.998  0.995  0.999  0.996  0.999  0.999


   alpha     51     52     53     54     55     56     57     58     59     60
    beta     51     52     53     54     55     56     57     58     59     60
 overlap   0.996  1.000  0.998  0.991  0.990  0.999  0.995  0.998  0.996  0.999


   alpha     61     62     63     64     65     66     67     68     69     70
    beta     61     62     63     64     65     66     67     68     69     71
 overlap   0.999  0.999  0.999  1.000  0.999  1.000  1.000  1.000  0.999  0.989


   alpha     71     72     73     74     75     76     77     78     79     80
    beta     70     72     73     74     75     77     76     78     79     80
 overlap   0.997  0.988  0.995  0.993  0.977  0.979  0.989  0.986  0.994  0.993


   alpha     81     82     83     84     85     86     87     88     89     90
    beta     81     82     83     84     85     86     87     88     89     90
 overlap   0.989  0.994  0.992  0.999  0.998  0.987  0.988  0.998  0.998  0.998


   alpha     91     92     93     94     95     96     97     98     99    100
    beta     91     92     93     94     95     97     96     98     99    100
 overlap   0.999  0.998  0.997  0.997  0.998  0.907  0.910  0.988  0.989  0.997


   alpha    101    102    103    104    105    106    107    108    109    110
    beta    101    102    103    104    105    106    107    108    109    110
 overlap   1.000  0.998  0.998  0.999  0.999  0.998  0.998  0.997  0.998  0.997


   alpha    111    112    113    114    115    116    117    118    119    120
    beta    111    112    113    114    115    116    117    118    119    120
 overlap   0.999  0.999  0.999  0.995  0.999  0.995  1.000  1.000  1.000  1.000


   alpha    121    122    123    124    125    126    127    128    129    130
    beta    121    122    123    124    125    126    127    128    129    130
 overlap   1.000  0.999  1.000  0.999  0.999  0.999  0.999  0.999  0.998  0.998


   alpha    131    132    133    134    135    136    137    138    139    140
    beta    131    132    133    134    135    137    136    138    139    140
 overlap   0.997  0.998  0.998  0.991  0.990  0.916  0.997  0.932  0.962  0.993


   alpha    141    142    143    144    145    146    147    148    149    150
    beta    141    143    142    144    146    145    147    148    149    150
 overlap   0.977  0.991  0.973  0.987  0.997  0.978  0.976  0.994  0.980  0.994


   alpha    151    152    153    154    155    156    157    158    159    160
    beta    151    153    152    154    156    155    157    158    160    159
 overlap   0.976  0.998  0.989  0.987  0.997  0.987  0.998  0.996  0.997  0.996


   alpha    161    162    163    164    165    166    167    168    169    170
    beta    161    162    163    164    165    166    167    168    169    170
 overlap   0.999  0.986  0.977  0.977  0.999  0.999  0.999  0.996  1.000  0.994


   alpha    171    172    173    174    175    176    177    178    179    180
    beta    172    171    173    174    175    176    177    178    179    180
 overlap   0.994  0.994  0.994  0.994  0.994  0.905  0.913  0.998  1.000  0.999


   alpha    181    182    183    184    185    186    187    188    189    190
    beta    182    181    184    183    185    186    187    188    189    190
 overlap   0.998  0.998  0.998  0.998  0.999  0.998  0.998  0.997  0.996  0.999


   alpha    191    192    193    194    195    196    197    198    199    200
    beta    191    192    193    194    196    195    197    198    199    200
 overlap   0.999  0.998  1.000  0.999  0.999  0.997  0.997  0.999  1.000  0.999


   alpha    201    202    203    204    205    206    207    208    209    210
    beta    201    202    203    204    205    206    207    208    209    210
 overlap   1.000  0.981  0.981  1.000  1.000  1.000  1.000  1.000  1.000  1.000


   alpha    211    212    213    214    215    216    217    218    219    220
    beta    211    212    213    214    215    216    217    218    219    220
 overlap   1.000  1.000  0.998  0.998  1.000  0.999  0.999  0.977  0.962  0.966


   alpha    221    222    223    224    225    226    227    228    229    230
    beta    222    221    223    224    225    226    227    228    229    230
 overlap   0.968  0.969  0.988  0.979  0.999  1.000  1.000  1.000  0.994  0.994


   alpha    231    232    233    234    235    236    237    238    239    240
    beta    231    232    233    234    235    236    237    238    239    240
 overlap   0.977  0.978  0.997  0.996  0.998  0.992  0.987  0.983  0.990  0.979


   alpha    241    242    243    244    245    246    247    248    249    250
    beta    241    242    243    245    244    246    247    248    249    250
 overlap   0.975  0.977  0.971  0.990  0.993  0.992  0.972  0.996  0.956  0.979


   alpha    251    252    253    254    255    256    257    258    259    260
    beta    252    251    254    253    255    256    257    258    259    260
 overlap   0.957  0.962  0.982  0.993  0.973  0.932  0.922  0.965  0.993  0.941


   alpha    261    262    263    264    265    266    267    268    269    270
    beta    261    262    264    263    266    266    267    268    269    270
 overlap   0.941  0.957  0.910  0.950  0.721  0.684  0.992  0.997  0.998  0.988


   alpha    271    272    273    274    275    276    277    278    279    280
    beta    271    272    273    274    275    276    277    278    279    280
 overlap   0.989  0.897  0.899  0.998  0.997  1.000  0.999  0.999  1.000  1.000


   alpha    281    282    283    284    285    286    287    288    289    290
    beta    281    282    283    284    285    286    287    288    289    290
 overlap   1.000  1.000  1.000  1.000  1.000  1.000  0.999  0.997  0.996  0.999


   alpha    291    292    293    294    295    296    297    298    299    300
    beta    291    292    293    294    295    296    297    298    299    300
 overlap   0.999  1.000  0.998  0.999  1.000  1.000  1.000  1.000  1.000  1.000


   alpha    301    302    303    304
    beta    301    302    303    304
 overlap   1.000  1.000  1.000  1.000

     --------------------------
     Expectation value of S2:  
     --------------------------
      <S2> =      2.0106 (Exact =     2.0000)


 center of mass
 --------------
 x =  -0.01452624 y =   0.11455487 z =   0.16133578

 moments of inertia (a.u.)
 ------------------
         405.915988184303           1.859392765627         -14.493293106125
           1.859392765627         410.034718905014           6.942475290516
         -14.493293106125           6.942475290516         396.192336931205

     Multipole analysis of the density
     ---------------------------------

     L   x y z        total         alpha         beta         nuclear
     -   - - -        -----         -----         ----         -------
     0   0 0 0     -0.000000    -25.000000    -23.000000     48.000000

     1   1 0 0      0.308464      0.242884     -0.022773      0.088352
     1   0 1 0     -0.134322     -2.814903     -2.486930      5.167511
     1   0 0 1      0.596909     -4.344068     -4.607814      9.548791

     2   2 0 0    -27.036418    -68.069325    -60.253639    101.286546
     2   1 1 0     -0.079485      0.411510      0.932035     -1.423029
     2   1 0 1      2.046249     -4.194403     -3.574535      9.815187
     2   0 2 0    -27.424909    -67.403227    -58.842172     98.820490
     2   0 1 1     -0.863660      1.583219      1.086766     -3.533645
     2   0 0 2    -24.158399    -70.951861    -65.578539    112.372001


 Task  times  cpu:       83.5s     wall:       87.4s


                                NWChem Input Module
                                -------------------


 Summary of allocated global arrays
-----------------------------------
  No active global arrays


MA_summarize_allocated_blocks: starting scan ...
heap block 'gridpts', handle 98, address 0x11597fc0:
	type of elements:		double precision
	number of elements:		33554432
	address of client space:	0x11598040
	index for client space:		11778913
	total number of bytes:		268435592
MA_summarize_allocated_blocks: scan completed: 1 heap block, 0 stack blocks
MA usage statistics:

	allocation statistics:
					      heap	     stack
					      ----	     -----
	current number of blocks	         1	         0
	maximum number of blocks	        21	        53
	current total bytes		 268435592	         0
	maximum total bytes		 269089240	  39027784
	maximum total K-bytes		    269090	     39028
	maximum total M-bytes		       270	        40


                                     CITATION
                                     --------
                Please cite the following reference when publishing
                           results obtained with NWChem:

          E. Apra, E. J. Bylaska, W. A. de Jong, N. Govind, K. Kowalski,
       T. P. Straatsma, M. Valiev, H. J. J. van Dam, Y. Alexeev, J. Anchell,
       V. Anisimov, F. W. Aquino, R. Atta-Fynn, J. Autschbach, N. P. Bauman,
     J. C. Becca, D. E. Bernholdt, K. Bhaskaran-Nair, S. Bogatko, P. Borowski,
         J. Boschen, J. Brabec, A. Bruner, E. Cauet, Y. Chen, G. N. Chuev,
      C. J. Cramer, J. Daily, M. J. O. Deegan, T. H. Dunning Jr., M. Dupuis,
   K. G. Dyall, G. I. Fann, S. A. Fischer, A. Fonari, H. Fruchtl, L. Gagliardi,
      J. Garza, N. Gawande, S. Ghosh, K. Glaesemann, A. W. Gotz, J. Hammond,
       V. Helms, E. D. Hermes, K. Hirao, S. Hirata, M. Jacquelin, L. Jensen,
   B. G. Johnson, H. Jonsson, R. A. Kendall, M. Klemm, R. Kobayashi, V. Konkov,
      S. Krishnamoorthy, M. Krishnan, Z. Lin, R. D. Lins, R. J. Littlefield,
      A. J. Logsdail, K. Lopata, W. Ma, A. V. Marenich, J. Martin del Campo,
   D. Mejia-Rodriguez, J. E. Moore, J. M. Mullin, T. Nakajima, D. R. Nascimento,
    J. A. Nichols, P. J. Nichols, J. Nieplocha, A. Otero-de-la-Roza, B. Palmer,
    A. Panyala, T. Pirojsirikul, B. Peng, R. Peverati, J. Pittner, L. Pollack,
   R. M. Richard, P. Sadayappan, G. C. Schatz, W. A. Shelton, D. W. Silverstein,
   D. M. A. Smith, T. A. Soares, D. Song, M. Swart, H. L. Taylor, G. S. Thomas,
            V. Tipparaju, D. G. Truhlar, K. Tsemekhman, T. Van Voorhis,
      A. Vazquez-Mayagoitia, P. Verma, O. Villa, A. Vishnu, K. D. Vogiatzis,
        D. Wang, J. H. Weare, M. J. Williamson, T. L. Windus, K. Wolinski,
        A. T. Wong, Q. Wu, C. Yang, Q. Yu, M. Zacharias, Z. Zhang, Y. Zhao,
                                and R. J. Harrison
                        "NWChem: Past, present, and future
                         J. Chem. Phys. 152, 184102 (2020)
                               doi:10.1063/5.0004997

                                      AUTHORS
                                      -------
  E. Apra, E. J. Bylaska, N. Govind, K. Kowalski, M. Valiev, D. Mejia-Rodriguez,
       A. Kunitsa, N. P. Bauman, A. Panyala, W. A. de Jong, T. P. Straatsma,
   H. J. J. van Dam, D. Wang, T. L. Windus, J. Hammond, J. Autschbach, A. Woods,
    K. Bhaskaran-Nair, J. Brabec, K. Lopata, S. A. Fischer, S. Krishnamoorthy,
     M. Jacquelin, W. Ma, M. Klemm, O. Villa, Y. Chen, V. Anisimov, F. Aquino,
     S. Hirata, M. T. Hackler, E. Hermes, L. Jensen, J. E. Moore, J. C. Becca,
      V. Konjkov, T. Risthaus, M. Malagoli, A. Marenich, A. Otero-de-la-Roza,
        J. Mullin, P. Nichols, R. Peverati, J. Pittner, Y. Zhao, P.-D. Fan,
        A. Fonari, M. J. Williamson, R. J. Harrison, J. R. Rehr, M. Dupuis,
     D. Silverstein, D. M. A. Smith, J. Nieplocha, V. Tipparaju, M. Krishnan,
     B. E. Van Kuiken, A. Vazquez-Mayagoitia, M. Swart, Q. Wu, T. Van Voorhis,
     A. A. Auer, M. Nooijen, L. D. Crosby, E. Brown, G. Cisneros, G. I. Fann,
   H. Fruchtl, J. Garza, K. Hirao, R. A. Kendall, J. A. Nichols, K. Tsemekhman,
    K. Wolinski, J. Anchell, D. E. Bernholdt, P. Borowski, T. Clark, D. Clerc,
   H. Dachsel, M. J. O. Deegan, K. Dyall, D. Elwood, E. Glendening, M. Gutowski,
   A. C. Hess, J. Jaffe, B. G. Johnson, J. Ju, R. Kobayashi, R. Kutteh, Z. Lin,
   R. Littlefield, X. Long, B. Meng, T. Nakajima, S. Niu, L. Pollack, M. Rosing,
   K. Glaesemann, G. Sandrone, M. Stave, H. Taylor, G. Thomas, J. H. van Lenthe,
                               A. T. Wong, Z. Zhang.

 Total times  cpu:       83.5s     wall:       87.7s
