 argument  1 = proton/mol.nwi
                                         
                                         


             Northwest Computational Chemistry Package (NWChem) 7.2.2
             --------------------------------------------------------


                    Environmental Molecular Sciences Laboratory
                       Pacific Northwest National Laboratory
                                Richland, WA 99352

                              Copyright (c) 1994-2022
                       Pacific Northwest National Laboratory
                            Battelle Memorial Institute

             NWChem is an open-source computational chemistry package
                        distributed under the terms of the
                      Educational Community License (ECL) 2.0
             A copy of the license is included with this distribution
                              in the LICENSE.TXT file

                                  ACKNOWLEDGMENT
                                  --------------

            This software and its documentation were developed at the
            EMSL at Pacific Northwest National Laboratory, a multiprogram
            national laboratory, operated for the U.S. Department of Energy
            by Battelle under Contract Number DE-AC05-76RL01830. Support
            for this work was provided by the Department of Energy Office
            of Biological and Environmental Research, Office of Basic
            Energy Sciences, and the Office of Advanced Scientific Computing.


           Job information
           ---------------

    hostname        = r193.ib.bridges2.psc.edu
    program         = nwchem
    date            = Tue Oct  1 16:51:15 2024

    compiled        = Mon_Mar_18_17:03:37_2024
    source          = /ocean/projects/pscstaff/mmadrid/nwchem-7.2.2
    nwchem branch   = 7.2.2
    nwchem revision = 74936fb9
    ga revision     = 5.8.0
    use scalapack   = F
    input           = proton/mol.nwi
    prefix          = dft.
    data base       = .//dft.db
    status          = startup
    nproc           =       15
    time left       =     -1s



           Memory information
           ------------------

    heap     =   67108860 doubles =    512.0 Mbytes
    stack    =   67108865 doubles =    512.0 Mbytes
    global   =  134217728 doubles =   1024.0 Mbytes (distinct from heap & stack)
    total    =  268435453 doubles =   2048.0 Mbytes
    verify   = yes
    hardfail = no 


           Directory information
           ---------------------

  0 permanent = ./
  0 scratch   = /jet/home/hmt47/nwchem_scratch/




                                NWChem Input Module
                                -------------------


  library name resolved from: environment
  library file name is: </opt/packages/nwchem/nwchem7.2.2/share/nwchem/libraries/>
  


 Summary of "ao basis" -> "" (cartesian)
 ------------------------------------------------------------------------------
       Tag                 Description            Shells   Functions and Types
 ---------------- ------------------------------  ------  ---------------------
 *                        aug-cc-pVTZ                 on all atoms 


  pbe96 is a nonlocal functional; adding pw91lda local functional. 

 Scaling coordinates for geometry "geometry" by  1.889725989
 (inverse scale =  0.529177249)



                             Geometry "geometry" -> ""
                             -------------------------

 Output coordinates in angstroms (scale by  1.889725989 to convert to a.u.)

  No.       Tag          Charge          X              Y              Z
 ---- ---------------- ---------- -------------- -------------- --------------
    1 C                    6.0000     0.00000000     0.00000000     0.00000000
    2 O                    8.0000    -0.09365600    -0.00000700     1.34059600
    3 O                    8.0000     0.59261500     0.99166500    -0.54540600
    4 O                    8.0000    -0.53044800    -1.02139400    -0.54989600
    5 H                    1.0000     0.34535800     0.80661600     1.70986600
    6 H                    1.0000    -0.90937461    -1.76139719    -0.00762781

      Atomic Mass 
      ----------- 

      C                 12.000000
      O                 15.994910
      H                  1.007825


 Effective nuclear repulsion energy (a.u.)     122.2939830214

            Nuclear Dipole moment (a.u.) 
            ----------------------------
        X                 Y               Z
 ---------------- ---------------- ----------------
    -1.5418815081    -2.2538179732     6.9250713129


            XYZ format geometry
            -------------------
     6
 geometry
 C                     0.00000000     0.00000000     0.00000000
 O                    -0.09365600    -0.00000700     1.34059600
 O                     0.59261500     0.99166500    -0.54540600
 O                    -0.53044800    -1.02139400    -0.54989600
 H                     0.34535800     0.80661600     1.70986600
 H                    -0.90937461    -1.76139719    -0.00762781

 ==============================================================================
                                internuclear distances
 ------------------------------------------------------------------------------
       center one      |      center two      | atomic units |  angstroms
 ------------------------------------------------------------------------------
    2 O                |   1 C                |     2.53953  |     1.34386
    3 O                |   1 C                |     2.41416  |     1.27752
    4 O                |   1 C                |     2.41042  |     1.27554
    5 H                |   2 O                |     1.87048  |     0.98982
    6 H                |   4 O                |     1.87573  |     0.99260
 ------------------------------------------------------------------------------
                         number of included internuclear distances:          5
 ==============================================================================



 ==============================================================================
                                 internuclear angles
 ------------------------------------------------------------------------------
        center 1       |       center 2       |       center 3       |  degrees
 ------------------------------------------------------------------------------
    2 O                |   1 C                |   3 O                |   117.27
    2 O                |   1 C                |   4 O                |   113.65
    3 O                |   1 C                |   4 O                |   129.08
    1 C                |   2 O                |   5 H                |   109.95
    1 C                |   4 O                |   6 H                |   121.35
 ------------------------------------------------------------------------------
                            number of included internuclear angles:          5
 ==============================================================================





                           NWChem Geometry Optimization
                           ----------------------------


 maximum gradient threshold         (gmax) =   0.000450
 rms gradient threshold             (grms) =   0.000300
 maximum cartesian step threshold   (xmax) =   0.001800
 rms cartesian step threshold       (xrms) =   0.001200
 fixed trust radius                (trust) =   0.300000
 maximum step size to saddle      (sadstp) =   0.100000
 energy precision                  (eprec) =   5.0D-06
 maximum number of steps          (nptopt) =   40
 initial hessian option           (inhess) =    0
 line search option               (linopt) =    1
 hessian update option            (modupd) =    1
 saddle point option              (modsad) =    0
 initial eigen-mode to follow     (moddir) =    0
 initial variable to follow       (vardir) =    0
 follow first negative mode     (firstneg) =    T
 apply conjugacy                    (opcg) =    F
 source of zmatrix                         =           


          -------------------
          Energy Minimization
          -------------------


 Using diagonal initial Hessian 

          --------
          Step   0
          --------


                         Geometry "geometry" -> "geometry"
                         ---------------------------------

 Output coordinates in angstroms (scale by  1.889725989 to convert to a.u.)

  No.       Tag          Charge          X              Y              Z
 ---- ---------------- ---------- -------------- -------------- --------------
    1 C                    6.0000     0.00000000     0.00000000     0.00000000
    2 O                    8.0000    -0.09365600    -0.00000700     1.34059600
    3 O                    8.0000     0.59261500     0.99166500    -0.54540600
    4 O                    8.0000    -0.53044800    -1.02139400    -0.54989600
    5 H                    1.0000     0.34535800     0.80661600     1.70986600
    6 H                    1.0000    -0.90937461    -1.76139719    -0.00762781

      Atomic Mass 
      ----------- 

      C                 12.000000
      O                 15.994910
      H                  1.007825


 Effective nuclear repulsion energy (a.u.)     122.2939830214

            Nuclear Dipole moment (a.u.) 
            ----------------------------
        X                 Y               Z
 ---------------- ---------------- ----------------
    -1.5418815081    -2.2538179732     6.9250713129


                                 NWChem DFT Module
                                 -----------------


                      Basis "ao basis" -> "ao basis" (cartesian)
                      -----
  C (Carbon)
  ----------
            Exponent  Coefficients 
       -------------- ---------------------------------------------------------
  1 S  8.23600000E+03  0.000531
  1 S  1.23500000E+03  0.004108
  1 S  2.80800000E+02  0.021087
  1 S  7.92700000E+01  0.081853
  1 S  2.55900000E+01  0.234817
  1 S  8.99700000E+00  0.434401
  1 S  3.31900000E+00  0.346129
  1 S  3.64300000E-01 -0.008983

  2 S  8.23600000E+03 -0.000113
  2 S  1.23500000E+03 -0.000878
  2 S  2.80800000E+02 -0.004540
  2 S  7.92700000E+01 -0.018133
  2 S  2.55900000E+01 -0.055760
  2 S  8.99700000E+00 -0.126895
  2 S  3.31900000E+00 -0.170352
  2 S  3.64300000E-01  0.598684

  3 S  9.05900000E-01  1.000000

  4 S  1.28500000E-01  1.000000

  5 S  4.40200000E-02  1.000000

  6 P  1.87100000E+01  0.014031
  6 P  4.13300000E+00  0.086866
  6 P  1.20000000E+00  0.290216

  7 P  3.82700000E-01  1.000000

  8 P  1.20900000E-01  1.000000

  9 P  3.56900000E-02  1.000000

 10 D  1.09700000E+00  1.000000

 11 D  3.18000000E-01  1.000000

 12 D  1.00000000E-01  1.000000

 13 F  7.61000000E-01  1.000000

 14 F  2.68000000E-01  1.000000

  O (Oxygen)
  ----------
            Exponent  Coefficients 
       -------------- ---------------------------------------------------------
  1 S  1.53300000E+04  0.000508
  1 S  2.29900000E+03  0.003929
  1 S  5.22400000E+02  0.020243
  1 S  1.47300000E+02  0.079181
  1 S  4.75500000E+01  0.230687
  1 S  1.67600000E+01  0.433118
  1 S  6.20700000E+00  0.350260
  1 S  6.88200000E-01 -0.008154

  2 S  1.53300000E+04 -0.000115
  2 S  2.29900000E+03 -0.000895
  2 S  5.22400000E+02 -0.004636
  2 S  1.47300000E+02 -0.018724
  2 S  4.75500000E+01 -0.058463
  2 S  1.67600000E+01 -0.136463
  2 S  6.20700000E+00 -0.175740
  2 S  6.88200000E-01  0.603418

  3 S  1.75200000E+00  1.000000

  4 S  2.38400000E-01  1.000000

  5 S  7.37600000E-02  1.000000

  6 P  3.44600000E+01  0.015928
  6 P  7.74900000E+00  0.099740
  6 P  2.28000000E+00  0.310492

  7 P  7.15600000E-01  1.000000

  8 P  2.14000000E-01  1.000000

  9 P  5.97400000E-02  1.000000

 10 D  2.31400000E+00  1.000000

 11 D  6.45000000E-01  1.000000

 12 D  2.14000000E-01  1.000000

 13 F  1.42800000E+00  1.000000

 14 F  5.00000000E-01  1.000000

  H (Hydrogen)
  ------------
            Exponent  Coefficients 
       -------------- ---------------------------------------------------------
  1 S  3.38700000E+01  0.006068
  1 S  5.09500000E+00  0.045308
  1 S  1.15900000E+00  0.202822

  2 S  3.25800000E-01  1.000000

  3 S  1.02700000E-01  1.000000

  4 S  2.52600000E-02  1.000000

  5 P  1.40700000E+00  1.000000

  6 P  3.88000000E-01  1.000000

  7 P  1.02000000E-01  1.000000

  8 D  1.05700000E+00  1.000000

  9 D  2.47000000E-01  1.000000



 Summary of "ao basis" -> "ao basis" (cartesian)
 ------------------------------------------------------------------------------
       Tag                 Description            Shells   Functions and Types
 ---------------- ------------------------------  ------  ---------------------
 C                        aug-cc-pVTZ               14       55   5s4p3d2f
 O                        aug-cc-pVTZ               14       55   5s4p3d2f
 H                        aug-cc-pVTZ                9       25   4s3p2d




 Summary of "ao basis" -> "ao basis" (cartesian)
 ------------------------------------------------------------------------------
       Tag                 Description            Shells   Functions and Types
 ---------------- ------------------------------  ------  ---------------------
 C                        aug-cc-pVTZ               14       55   5s4p3d2f
 O                        aug-cc-pVTZ               14       55   5s4p3d2f
 H                        aug-cc-pVTZ                9       25   4s3p2d


  Caching 1-el integrals 

            General Information
            -------------------
          SCF calculation type: DFT
          Wavefunction type:  closed shell.
          No. of atoms     :     6
          No. of electrons :    32
           Alpha electrons :    16
            Beta electrons :    16
          Charge           :     0
          Spin multiplicity:     1
          Use of symmetry is: off; symmetry adaption is: off
          Maximum number of iterations: 200
          AO basis - number of functions:   270
                     number of shells:    74
          Convergence on energy requested:  1.00D-06
          Convergence on density requested:  1.00D-05
          Convergence on gradient requested:  5.00D-04

              XC Information
              --------------
          PerdewBurkeErnzerhof Exchange Functional  1.000          
            Perdew 1991 LDA Correlation Functional  1.000 local    
           PerdewBurkeErnz. Correlation Functional  1.000 non-local

             Grid Information
             ----------------
          Grid used for XC integration:  medium    
          Radial quadrature: Mura-Knowles        
          Angular quadrature: Lebedev. 
          Tag              B.-S. Rad. Rad. Pts. Rad. Cut. Ang. Pts.
          ---              ---------- --------- --------- ---------
          C                   0.70       49          13.0       434
          O                   0.60       49          13.0       434
          H                   0.35       45          15.0       434
          Grid pruning is: on 
          Number of quadrature shells:   286
          Spatial weights used:  Erf1

          Convergence Information
          -----------------------
          Convergence aids based upon iterative change in 
          total energy or number of iterations. 
          Levelshifting, if invoked, occurs when the 
          HOMO/LUMO gap drops below (HL_TOL):  1.00D-02
          DIIS, if invoked, will attempt to extrapolate 
          using up to (NFOCK): 10 stored Fock matrices.

                    Damping(40%)  Levelshifting(0.0)       DIIS
                  --------------- ------------------- ---------------
          dE  on:    start            0.00D+00            start   
          dE off:  200 iters          0.00D+00          200 iters 


      Screening Tolerance Information
      -------------------------------
          Density screening/tol_rho:  1.00D-10
          AO Gaussian exp screening on grid/accAOfunc:  14
          CD Gaussian exp screening on grid/accCDfunc:  20
          XC Gaussian exp screening on grid/accXCfunc:  20
          Schwarz screening/accCoul:  1.00D-08


 Forcing the number of linearly dependent vectors to be  0

      Superposition of Atomic Density Guess
      -------------------------------------

 Sum of atomic energies:        -263.01409135
   Time after variat. SCF:      0.5
   Time prior to 1st pass:      0.5

 Grid_pts file          = /jet/home/hmt47/nwchem_scratch//dft.gridpts.00
 Record size in doubles =  12289        No. of grid_pts per rec  =   3070
 Max. records in memory =      4        Max. recs in file   =  67550051


           Memory utilization after 1st SCF pass: 
           Heap Space remaining (MW):       33.50            33499476
          Stack Space remaining (MW):       67.11            67107396

   convergence    iter        energy       DeltaE   RMS-Dens  Diis-err    time
 ---------------- ----- ----------------- --------- --------- ---------  ------
 d=40,ls=0.0,diis     1   -265.4739205572 -3.88D+02  7.87D-03  4.25D+01     0.8
 d=40,ls=0.0,diis     2   -265.0553022374  4.19D-01  7.14D-03  7.13D+00     2.9
 d=40,ls=0.0,diis     3   -264.5064710188  5.49D-01  3.38D-03  3.62D+00     4.9
 d=40,ls=0.0,diis     4   -264.7594241001 -2.53D-01  1.26D-03  6.51D-01     7.0
 d=40,ls=0.0,diis     5   -264.8125634616 -5.31D-02  4.90D-04  1.02D-01     9.0
  Resetting Diis
 d=40,ls=0.0,diis     6   -264.8267859407 -1.42D-02  2.00D-04  2.17D-02    11.1
 d=40,ls=0.0,diis     7   -264.8318758977 -5.09D-03  2.78D-04  5.29D-03    13.1
 d=40,ls=0.0,diis     8   -264.8330392364 -1.16D-03  1.20D-04  6.77D-03    15.2
 d=40,ls=0.0,diis     9   -264.8343526356 -1.31D-03  5.88D-05  1.05D-03    17.3
 d=40,ls=0.0,diis    10   -264.8347874212 -4.35D-04  3.23D-05  2.34D-04    19.3
 d=40,ls=0.0,diis    11   -264.8349615679 -1.74D-04  1.12D-05  3.18D-05    21.4
 d=40,ls=0.0,diis    12   -264.8350279162 -6.63D-05  3.92D-06  3.44D-06    23.5
 d=40,ls=0.0,diis    13   -264.8350539359 -2.60D-05  1.58D-06  5.35D-07    25.5
 d=40,ls=0.0,diis    14   -264.8350643047 -1.04D-05  6.27D-07  9.02D-08    27.6
 d=40,ls=0.0,diis    15   -264.8350684467 -4.14D-06  2.62D-07  1.52D-08    29.6
 d=40,ls=0.0,diis    16   -264.8350701025 -1.66D-06  1.06D-07  2.45D-09    31.7
 d=40,ls=0.0,diis    17   -264.8350707647 -6.62D-07  4.27D-08  3.95D-10    33.8


         Total DFT energy =     -264.835070764673
      One electron energy =     -605.481196999000
           Coulomb energy =      249.966892055937
    Exchange-Corr. energy =      -31.614748843031
 Nuclear repulsion energy =      122.293983021421

 Numeric. integr. density =       31.999995943367

     Total iterative time =     33.3s



                       DFT Final Molecular Orbital Analysis
                       ------------------------------------

 Vector    1  Occ=2.000000D+00  E=-1.883944D+01
              MO Center= -5.3D-01, -1.0D+00, -5.5D-01, r^2= 1.5D-02
   Bfn.  Coefficient  Atom+Function         Bfn.  Coefficient  Atom+Function  
  ----- ------------  ---------------      ----- ------------  ---------------
   166      0.983523  4 O  s                168      0.066930  4 O  s          
    34     -0.046854  1 C  dyz               13      0.037853  1 C  py         
   248     -0.037111  6 H  s                169     -0.036480  4 O  s          
   170      0.032355  4 O  s                 50      0.032147  1 C  fxyz       
   195      0.031640  4 O  dxx               53      0.030229  1 C  fyyz       

 Vector    2  Occ=2.000000D+00  E=-1.881465D+01
              MO Center= -9.4D-02,  7.7D-05,  1.3D+00, r^2= 1.5D-02
   Bfn.  Coefficient  Atom+Function         Bfn.  Coefficient  Atom+Function  
  ----- ------------  ---------------      ----- ------------  ---------------
    56      0.981898  2 O  s                 59     -0.068641  2 O  s          
    58      0.065041  2 O  s                170     -0.035864  4 O  s          
    14     -0.030259  1 C  pz                11      0.026909  1 C  pz         
    85      0.026864  2 O  dxx               88      0.026334  2 O  dyy        

 Vector    3  Occ=2.000000D+00  E=-1.873760D+01
              MO Center=  5.9D-01,  9.9D-01, -5.5D-01, r^2= 1.5D-02
   Bfn.  Coefficient  Atom+Function         Bfn.  Coefficient  Atom+Function  
  ----- ------------  ---------------      ----- ------------  ---------------
   111      0.981519  3 O  s                113      0.066145  3 O  s          
   169      0.049555  4 O  s                114     -0.048295  3 O  s          
    13     -0.038024  1 C  py                34      0.037056  1 C  dyz        
   248      0.034745  6 H  s                 50      0.031452  1 C  fxyz       
   170     -0.029081  4 O  s                 10      0.027689  1 C  py         

 Vector    4  Occ=2.000000D+00  E=-1.006906D+01
              MO Center= -7.1D-05, -1.2D-04,  3.3D-05, r^2= 2.8D-02
   Bfn.  Coefficient  Atom+Function         Bfn.  Coefficient  Atom+Function  
  ----- ------------  ---------------      ----- ------------  ---------------
     1      1.011959  1 C  s                  2      0.083556  1 C  s          
     3      0.067476  1 C  s                114     -0.065551  3 O  s          
   169     -0.057353  4 O  s                178     -0.050426  4 O  py         
    53     -0.033098  1 C  fyyz              27      0.031685  1 C  dyy        
     4      0.030927  1 C  s                 25      0.030239  1 C  dxy        

 Vector    5  Occ=2.000000D+00  E=-1.078740D+00
              MO Center= -2.7D-01, -5.0D-01,  4.3D-02, r^2= 1.2D+00
   Bfn.  Coefficient  Atom+Function         Bfn.  Coefficient  Atom+Function  
  ----- ------------  ---------------      ----- ------------  ---------------
   167      0.347484  4 O  s                  2      0.236494  1 C  s          
    57      0.218139  2 O  s                169      0.161264  4 O  s          
    59      0.114459  2 O  s                168      0.094768  4 O  s          
   112      0.091958  3 O  s                  3      0.071069  1 C  s          
     4      0.069258  1 C  s                 58      0.059991  2 O  s          

 Vector    6  Occ=2.000000D+00  E=-9.900511D-01
              MO Center= -1.5D-01, -2.1D-01,  5.7D-01, r^2= 1.5D+00
   Bfn.  Coefficient  Atom+Function         Bfn.  Coefficient  Atom+Function  
  ----- ------------  ---------------      ----- ------------  ---------------
    57      0.362550  2 O  s                167     -0.291920  4 O  s          
   169     -0.225615  4 O  s                 59      0.208335  2 O  s          
    58      0.098781  2 O  s                114      0.096492  3 O  s          
   112      0.089211  3 O  s                  8      0.084124  1 C  pz         
   168     -0.079228  4 O  s                  7      0.072315  1 C  py         

 Vector    7  Occ=2.000000D+00  E=-9.068208D-01
              MO Center=  3.5D-01,  6.1D-01, -2.0D-01, r^2= 1.0D+00
   Bfn.  Coefficient  Atom+Function         Bfn.  Coefficient  Atom+Function  
  ----- ------------  ---------------      ----- ------------  ---------------
   112      0.415960  3 O  s                114      0.284389  3 O  s          
    57     -0.188371  2 O  s                 59     -0.146508  2 O  s          
     2      0.128491  1 C  s                113      0.117105  3 O  s          
     7      0.096914  1 C  py                 8     -0.083904  1 C  pz         
   117     -0.068849  3 O  py               120     -0.065582  3 O  py         

 Vector    8  Occ=2.000000D+00  E=-6.373355D-01
              MO Center= -4.3D-01, -8.1D-01, -1.1D-01, r^2= 1.6D+00
   Bfn.  Coefficient  Atom+Function         Bfn.  Coefficient  Atom+Function  
  ----- ------------  ---------------      ----- ------------  ---------------
   172      0.231611  4 O  py                 2      0.224453  1 C  s          
   175      0.209064  4 O  py               247     -0.176027  6 H  s          
   246     -0.135490  6 H  s                171      0.117675  4 O  px         
   112     -0.115636  3 O  s                167     -0.110752  4 O  s          
   174      0.106020  4 O  px                 7     -0.103180  1 C  py         

 Vector    9  Occ=2.000000D+00  E=-5.688071D-01
              MO Center= -1.1D-01, -1.2D-01,  7.8D-01, r^2= 1.7D+00
   Bfn.  Coefficient  Atom+Function         Bfn.  Coefficient  Atom+Function  
  ----- ------------  ---------------      ----- ------------  ---------------
    63      0.219758  2 O  pz                66      0.207637  2 O  pz         
     8     -0.176101  1 C  pz               222      0.161164  5 H  s          
   169      0.134265  4 O  s                221      0.124921  5 H  s          
   247     -0.122795  6 H  s                 62      0.121614  2 O  py         
   172      0.121025  4 O  py                11     -0.120328  1 C  pz         

 Vector   10  Occ=2.000000D+00  E=-4.485822D-01
              MO Center= -1.7D-01, -3.0D-01,  2.9D-02, r^2= 1.6D+00
   Bfn.  Coefficient  Atom+Function         Bfn.  Coefficient  Atom+Function  
  ----- ------------  ---------------      ----- ------------  ---------------
   171      0.197744  4 O  px               174      0.196461  4 O  px         
     6      0.192003  1 C  px                 9      0.161122  1 C  px         
    61      0.137537  2 O  px                64      0.136525  2 O  px         
   177      0.111803  4 O  px                 7     -0.110594  1 C  py         
   172     -0.099206  4 O  py               175     -0.098433  4 O  py         

 Vector   11  Occ=2.000000D+00  E=-4.361982D-01
              MO Center=  1.6D-01,  3.1D-01,  2.9D-01, r^2= 2.2D+00
   Bfn.  Coefficient  Atom+Function         Bfn.  Coefficient  Atom+Function  
  ----- ------------  ---------------      ----- ------------  ---------------
   112      0.213273  3 O  s                 59      0.190430  2 O  s          
   114      0.181711  3 O  s                 62     -0.157759  2 O  py         
    65     -0.151079  2 O  py                 2     -0.145587  1 C  s          
    57      0.130783  2 O  s                  7     -0.120449  1 C  py         
     4     -0.114758  1 C  s                 63      0.114884  2 O  pz         

 Vector   12  Occ=2.000000D+00  E=-3.794872D-01
              MO Center= -2.6D-01, -4.6D-01,  1.3D-01, r^2= 2.2D+00
   Bfn.  Coefficient  Atom+Function         Bfn.  Coefficient  Atom+Function  
  ----- ------------  ---------------      ----- ------------  ---------------
   173      0.273407  4 O  pz               176      0.268381  4 O  pz         
    59     -0.201893  2 O  s                170     -0.181478  4 O  s          
    62      0.176133  2 O  py                65      0.164867  2 O  py         
    60     -0.162163  2 O  s                179      0.152509  4 O  pz         
    57     -0.146204  2 O  s                169     -0.143751  4 O  s          

 Vector   13  Occ=2.000000D+00  E=-3.616196D-01
              MO Center=  1.3D-01,  2.1D-01, -1.9D-01, r^2= 2.4D+00
   Bfn.  Coefficient  Atom+Function         Bfn.  Coefficient  Atom+Function  
  ----- ------------  ---------------      ----- ------------  ---------------
   117      0.200672  3 O  py               120      0.195869  3 O  py         
   173     -0.178781  4 O  pz               176     -0.173332  4 O  pz         
   114      0.162185  3 O  s                 63     -0.139820  2 O  pz         
   169      0.136736  4 O  s                 66     -0.134938  2 O  pz         
   112      0.130048  3 O  s                  8      0.127686  1 C  pz         

 Vector   14  Occ=2.000000D+00  E=-3.284656D-01
              MO Center= -2.6D-01, -4.2D-01,  4.4D-01, r^2= 1.9D+00
   Bfn.  Coefficient  Atom+Function         Bfn.  Coefficient  Atom+Function  
  ----- ------------  ---------------      ----- ------------  ---------------
   174     -0.242592  4 O  px                64      0.241056  2 O  px         
    61      0.239129  2 O  px               171     -0.238861  4 O  px         
    67      0.159336  2 O  px               177     -0.151094  4 O  px         
    65     -0.141528  2 O  py                62     -0.140137  2 O  py         
   175      0.124382  4 O  py               172      0.122412  4 O  py         

 Vector   15  Occ=2.000000D+00  E=-2.697888D-01
              MO Center=  3.2D-01,  5.7D-01, -1.3D-01, r^2= 1.7D+00
   Bfn.  Coefficient  Atom+Function         Bfn.  Coefficient  Atom+Function  
  ----- ------------  ---------------      ----- ------------  ---------------
   116      0.272400  3 O  px               119      0.271840  3 O  px         
   122      0.177231  3 O  px                64     -0.161175  2 O  px         
    61     -0.158155  2 O  px               117     -0.152913  3 O  py         
   120     -0.152558  3 O  py                67     -0.114049  2 O  px         
   174     -0.104120  4 O  px               171     -0.101173  4 O  px         

 Vector   16  Occ=2.000000D+00  E=-2.366664D-01
              MO Center=  4.6D-01,  7.9D-01, -3.2D-01, r^2= 1.4D+00
   Bfn.  Coefficient  Atom+Function         Bfn.  Coefficient  Atom+Function  
  ----- ------------  ---------------      ----- ------------  ---------------
   118      0.338730  3 O  pz               121      0.335762  3 O  pz         
   124      0.224297  3 O  pz                60      0.139251  2 O  s          
   117      0.113691  3 O  py               120      0.113398  3 O  py         
    66      0.109981  2 O  pz                63      0.106639  2 O  pz         
    65     -0.087566  2 O  py               123      0.087825  3 O  py         

 Vector   17  Occ=0.000000D+00  E=-4.952933D-02
              MO Center= -7.4D-01, -1.5D+00,  5.2D-01, r^2= 7.3D+00
   Bfn.  Coefficient  Atom+Function         Bfn.  Coefficient  Atom+Function  
  ----- ------------  ---------------      ----- ------------  ---------------
   249      0.668719  6 H  s                170      0.656077  4 O  s          
     5     -0.473511  1 C  s                  4     -0.336743  1 C  s          
   224      0.256315  5 H  s                 59     -0.209867  2 O  s          
   257     -0.179629  6 H  py               223      0.174348  5 H  s          
   115      0.166252  3 O  s                167     -0.152903  4 O  s          

 Vector   18  Occ=0.000000D+00  E=-2.420738D-02
              MO Center=  2.6D-02,  1.2D-01, -2.0D-03, r^2= 2.1D+00
   Bfn.  Coefficient  Atom+Function         Bfn.  Coefficient  Atom+Function  
  ----- ------------  ---------------      ----- ------------  ---------------
    12      0.428440  1 C  px                 9      0.334720  1 C  px         
     6      0.310081  1 C  px                13     -0.242195  1 C  py         
   122     -0.213230  3 O  px               119     -0.187865  3 O  px         
   116     -0.180754  3 O  px                10     -0.178863  1 C  py         
     7     -0.173147  1 C  py                67     -0.161883  2 O  px         

 Vector   19  Occ=0.000000D+00  E=-1.702246D-02
              MO Center=  1.4D-01,  3.7D-01,  1.7D+00, r^2= 1.0D+01
   Bfn.  Coefficient  Atom+Function         Bfn.  Coefficient  Atom+Function  
  ----- ------------  ---------------      ----- ------------  ---------------
   224      1.220817  5 H  s                249     -0.777468  6 H  s          
   170     -0.582332  4 O  s                 60      0.359670  2 O  s          
    16     -0.280270  1 C  py                17     -0.241086  1 C  pz         
    59     -0.180708  2 O  s                257      0.159948  6 H  py         
   223      0.152492  5 H  s                 14     -0.151259  1 C  pz         

 Vector   20  Occ=0.000000D+00  E= 3.287850D-02
              MO Center= -2.7D-01, -1.6D-01,  2.5D-01, r^2= 1.2D+01
   Bfn.  Coefficient  Atom+Function         Bfn.  Coefficient  Atom+Function  
  ----- ------------  ---------------      ----- ------------  ---------------
    15      1.548925  1 C  px                16     -0.873987  1 C  py         
   125     -0.518514  3 O  px               181      0.367037  4 O  py         
   180     -0.340895  4 O  px                17      0.263953  1 C  pz         
   126      0.261081  3 O  py                 5     -0.237919  1 C  s          
   256      0.234580  6 H  px                70     -0.194410  2 O  px         

 Vector   21  Occ=0.000000D+00  E= 3.363492D-02
              MO Center=  1.5D-01, -8.4D-02, -6.2D-01, r^2= 1.3D+01
   Bfn.  Coefficient  Atom+Function         Bfn.  Coefficient  Atom+Function  
  ----- ------------  ---------------      ----- ------------  ---------------
     5      2.732369  1 C  s                115     -2.472448  3 O  s          
    17     -1.646376  1 C  pz               170     -1.589344  4 O  s          
    60      1.371799  2 O  s                223     -1.199846  5 H  s          
     4      1.134719  1 C  s                169     -0.875057  4 O  s          
    14     -0.757533  1 C  pz               181     -0.714416  4 O  py         

 Vector   22  Occ=0.000000D+00  E= 4.621503D-02
              MO Center= -1.2D+00, -2.3D+00,  4.2D-01, r^2= 1.5D+01
   Bfn.  Coefficient  Atom+Function         Bfn.  Coefficient  Atom+Function  
  ----- ------------  ---------------      ----- ------------  ---------------
     5      5.393597  1 C  s                  4      3.045782  1 C  s          
   249     -2.638730  6 H  s                 60     -2.342505  2 O  s          
   248     -2.317684  6 H  s                181     -1.493521  4 O  py         
   115     -1.260225  3 O  s                180     -0.775380  4 O  px         
   224     -0.776136  5 H  s                 35      0.707162  1 C  dzz        

 Vector   23  Occ=0.000000D+00  E= 5.603892D-02
              MO Center= -3.9D-01, -6.3D-01,  8.0D-01, r^2= 1.2D+01
   Bfn.  Coefficient  Atom+Function         Bfn.  Coefficient  Atom+Function  
  ----- ------------  ---------------      ----- ------------  ---------------
     5      7.897065  1 C  s                 60     -5.578528  2 O  s          
   170     -4.592564  4 O  s                  4      3.019683  1 C  s          
   223      2.752013  5 H  s                115     -2.458964  3 O  s          
   248      1.757185  6 H  s                 17      1.436491  1 C  pz         
   249     -1.232998  6 H  s                 16     -1.097128  1 C  py         

 Vector   24  Occ=0.000000D+00  E= 6.280613D-02
              MO Center=  7.3D-01,  1.5D+00,  1.4D+00, r^2= 1.5D+01
   Bfn.  Coefficient  Atom+Function         Bfn.  Coefficient  Atom+Function  
  ----- ------------  ---------------      ----- ------------  ---------------
   223     -4.018389  5 H  s                  5      3.851385  1 C  s          
   224     -2.771182  5 H  s                170     -2.614867  4 O  s          
   248      2.272514  6 H  s                 71      1.733357  2 O  py         
    60      1.328056  2 O  s                 72      1.301215  2 O  pz         
     4      1.054900  1 C  s                 17      0.925295  1 C  pz         

 Vector   25  Occ=0.000000D+00  E= 6.898899D-02
              MO Center= -2.5D-01, -4.0D-01,  6.4D-01, r^2= 2.1D+01
   Bfn.  Coefficient  Atom+Function         Bfn.  Coefficient  Atom+Function  
  ----- ------------  ---------------      ----- ------------  ---------------
   170      7.375549  4 O  s                 16      3.696928  1 C  py         
   249      3.148361  6 H  s                224     -2.847898  5 H  s          
   223      2.689673  5 H  s                115     -2.619363  3 O  s          
    17      2.439983  1 C  pz                60     -2.446100  2 O  s          
   248     -2.227003  6 H  s                 15      1.805860  1 C  px         

 Vector   26  Occ=0.000000D+00  E= 9.610382D-02
              MO Center=  1.7D-01,  4.0D-01,  5.7D-01, r^2= 1.4D+01
   Bfn.  Coefficient  Atom+Function         Bfn.  Coefficient  Atom+Function  
  ----- ------------  ---------------      ----- ------------  ---------------
     4      4.037583  1 C  s                 60     -3.599819  2 O  s          
   115     -3.544159  3 O  s                 72      3.100439  2 O  pz         
   170     -2.457228  4 O  s                 33      2.110059  1 C  dyy        
    30      1.964753  1 C  dxx               35      1.968466  1 C  dzz        
   169      1.507682  4 O  s                248      1.412369  6 H  s          

 Vector   27  Occ=0.000000D+00  E= 9.958816D-02
              MO Center= -3.7D-01, -6.3D-01,  1.0D-01, r^2= 1.1D+01
   Bfn.  Coefficient  Atom+Function         Bfn.  Coefficient  Atom+Function  
  ----- ------------  ---------------      ----- ------------  ---------------
   180      1.785154  4 O  px               170      1.007139  4 O  s          
   181     -0.841763  4 O  py                31      0.595905  1 C  dxy        
   248     -0.579703  6 H  s                 32      0.551684  1 C  dxz        
    34     -0.514665  1 C  dyz               70     -0.515731  2 O  px         
    71      0.498024  2 O  py                15     -0.375663  1 C  px         

 Vector   28  Occ=0.000000D+00  E= 1.095276D-01
              MO Center=  4.0D-02,  1.5D-01,  3.5D-01, r^2= 1.2D+01
   Bfn.  Coefficient  Atom+Function         Bfn.  Coefficient  Atom+Function  
  ----- ------------  ---------------      ----- ------------  ---------------
    70      2.058168  2 O  px                60      1.021943  2 O  s          
    71     -0.968440  2 O  py                15     -0.959167  1 C  px         
   125     -0.843948  3 O  px                 4     -0.833840  1 C  s          
    33     -0.663470  1 C  dyy               32     -0.538750  1 C  dxz        
     5     -0.534515  1 C  s                248      0.535297  6 H  s          

 Vector   29  Occ=0.000000D+00  E= 1.206955D-01
              MO Center= -2.4D-01, -5.3D-01, -1.7D-01, r^2= 1.2D+01
   Bfn.  Coefficient  Atom+Function         Bfn.  Coefficient  Atom+Function  
  ----- ------------  ---------------      ----- ------------  ---------------
     4      7.724063  1 C  s                 60     -7.493291  2 O  s          
   115     -5.566358  3 O  s                  5      5.163574  1 C  s          
   170     -4.531470  4 O  s                 33      3.571997  1 C  dyy        
    35      3.369977  1 C  dzz               30      3.161493  1 C  dxx        
   181     -3.051403  4 O  py                72      2.310464  2 O  pz         

 Vector   30  Occ=0.000000D+00  E= 1.450057D-01
              MO Center= -2.4D-01, -4.8D-01, -2.0D-01, r^2= 1.4D+01
   Bfn.  Coefficient  Atom+Function         Bfn.  Coefficient  Atom+Function  
  ----- ------------  ---------------      ----- ------------  ---------------
   170     10.884455  4 O  s                 60      6.823672  2 O  s          
   223     -6.572070  5 H  s                248     -5.909978  6 H  s          
     5     -5.289192  1 C  s                182      4.544445  4 O  pz         
     4     -4.090816  1 C  s                 71      3.191123  2 O  py         
    17     -2.001319  1 C  pz               115      1.894580  3 O  s          

 Vector   31  Occ=0.000000D+00  E= 1.614627D-01
              MO Center=  4.5D-02, -1.5D-02, -4.3D-01, r^2= 1.3D+01
   Bfn.  Coefficient  Atom+Function         Bfn.  Coefficient  Atom+Function  
  ----- ------------  ---------------      ----- ------------  ---------------
   115      6.759097  3 O  s                  4     -5.493999  1 C  s          
   248      4.944835  6 H  s                  5     -4.353449  1 C  s          
    60      4.031221  2 O  s                126     -3.406939  3 O  py         
    16      3.289546  1 C  py                13     -3.046083  1 C  py         
   182     -2.913674  4 O  pz                35     -2.556961  1 C  dzz        

 Vector   32  Occ=0.000000D+00  E= 1.726903D-01
              MO Center= -4.5D-04,  1.6D-01,  2.1D-01, r^2= 1.2D+01
   Bfn.  Coefficient  Atom+Function         Bfn.  Coefficient  Atom+Function  
  ----- ------------  ---------------      ----- ------------  ---------------
     5     11.592995  1 C  s                  4      8.604306  1 C  s          
   170     -8.136701  4 O  s                115     -5.925614  3 O  s          
   181     -3.657314  4 O  py                31      2.620265  1 C  dxy        
   223     -2.504146  5 H  s                 33      2.090690  1 C  dyy        
   248     -1.948766  6 H  s                169     -1.808706  4 O  s          

 Vector   33  Occ=0.000000D+00  E= 1.752237D-01
              MO Center=  1.9D-01,  2.8D-01, -5.5D-03, r^2= 1.4D+01
   Bfn.  Coefficient  Atom+Function         Bfn.  Coefficient  Atom+Function  
  ----- ------------  ---------------      ----- ------------  ---------------
    15      3.094806  1 C  px               125     -2.138167  3 O  px         
   180     -2.009127  4 O  px                16     -1.701653  1 C  py         
    12      1.177437  1 C  px               126      1.150164  3 O  py         
    70     -1.029055  2 O  px                 5      0.988093  1 C  s          
   170     -0.878605  4 O  s                 13     -0.723971  1 C  py         

 Vector   34  Occ=0.000000D+00  E= 1.810336D-01
              MO Center=  3.4D-01,  6.8D-01, -4.0D-01, r^2= 1.4D+01
   Bfn.  Coefficient  Atom+Function         Bfn.  Coefficient  Atom+Function  
  ----- ------------  ---------------      ----- ------------  ---------------
   170     -7.500351  4 O  s                 60      7.356862  2 O  s          
   115     -6.482040  3 O  s                  4      5.149786  1 C  s          
   248      5.141713  6 H  s                 17      4.504437  1 C  pz         
   127     -4.394038  3 O  pz               182     -4.279070  4 O  pz         
    14     -3.587394  1 C  pz                72     -3.514544  2 O  pz         

 Vector   35  Occ=0.000000D+00  E= 1.907343D-01
              MO Center= -1.9D-01,  3.8D-01,  6.3D-01, r^2= 1.3D+01
   Bfn.  Coefficient  Atom+Function         Bfn.  Coefficient  Atom+Function  
  ----- ------------  ---------------      ----- ------------  ---------------
     5      5.763599  1 C  s                248      5.464807  6 H  s          
    60     -4.651055  2 O  s                 72      4.168290  2 O  pz         
   223     -3.918227  5 H  s                 71      3.253507  2 O  py         
   181      2.944126  4 O  py                16     -2.614225  1 C  py         
   115     -2.570247  3 O  s                 34     -2.176263  1 C  dyz        

 Vector   36  Occ=0.000000D+00  E= 1.963608D-01
              MO Center=  2.4D-01, -2.4D-01,  1.7D-01, r^2= 1.0D+01
   Bfn.  Coefficient  Atom+Function         Bfn.  Coefficient  Atom+Function  
  ----- ------------  ---------------      ----- ------------  ---------------
   180      2.250137  4 O  px                60     -2.214617  2 O  s          
     5      2.016190  1 C  s                248      1.391606  6 H  s          
   256     -1.267045  6 H  px               126      1.195314  3 O  py         
    72      1.181729  2 O  pz               231      1.140759  5 H  px         
    71      1.083504  2 O  py                 4      1.005055  1 C  s          

 Vector   37  Occ=0.000000D+00  E= 2.158221D-01
              MO Center= -4.0D-01, -8.3D-01, -2.6D-01, r^2= 1.2D+01
   Bfn.  Coefficient  Atom+Function         Bfn.  Coefficient  Atom+Function  
  ----- ------------  ---------------      ----- ------------  ---------------
    60     17.257897  2 O  s                223    -10.652132  5 H  s          
   170     -7.966873  4 O  s                248      6.737741  6 H  s          
     5     -4.978066  1 C  s                 14     -3.811923  1 C  pz         
    71      2.600647  2 O  py                17     -2.499543  1 C  pz         
   115     -2.391704  3 O  s                  4     -2.184550  1 C  s          

 Vector   38  Occ=0.000000D+00  E= 2.240886D-01
              MO Center= -2.3D-01, -2.8D-01,  5.2D-01, r^2= 9.2D+00
   Bfn.  Coefficient  Atom+Function         Bfn.  Coefficient  Atom+Function  
  ----- ------------  ---------------      ----- ------------  ---------------
   223     -3.362713  5 H  s                115      3.175754  3 O  s          
    60      3.143824  2 O  s                 70      2.495378  2 O  px         
    15     -1.649905  1 C  px                 4     -1.621679  1 C  s          
    34      1.509513  1 C  dyz                5     -1.417710  1 C  s          
   181     -1.409355  4 O  py               232      1.402011  5 H  py         

 Vector   39  Occ=0.000000D+00  E= 2.308857D-01
              MO Center=  6.9D-02,  8.8D-02,  1.1D-01, r^2= 1.4D+01
   Bfn.  Coefficient  Atom+Function         Bfn.  Coefficient  Atom+Function  
  ----- ------------  ---------------      ----- ------------  ---------------
   170     15.264799  4 O  s                115     -9.016716  3 O  s          
    34     -4.710554  1 C  dyz               13      4.307026  1 C  py         
    60     -4.258098  2 O  s                248     -4.195655  6 H  s          
   223      3.973039  5 H  s                 16      3.334818  1 C  py         
   181      3.349036  4 O  py                32     -2.859500  1 C  dxz        

 Vector   40  Occ=0.000000D+00  E= 2.366357D-01
              MO Center= -1.8D-01, -3.1D-01,  4.7D-01, r^2= 1.1D+01
   Bfn.  Coefficient  Atom+Function         Bfn.  Coefficient  Atom+Function  
  ----- ------------  ---------------      ----- ------------  ---------------
   170     15.435084  4 O  s                223     -9.085442  5 H  s          
    60      8.105946  2 O  s                248     -7.843685  6 H  s          
     5     -7.574204  1 C  s                  4     -7.422798  1 C  s          
   115      7.070363  3 O  s                 71      3.372844  2 O  py         
   169      2.830712  4 O  s                182      2.635293  4 O  pz         

 Vector   41  Occ=0.000000D+00  E= 2.599918D-01
              MO Center= -3.9D-01, -7.4D-01,  2.1D-01, r^2= 1.0D+01
   Bfn.  Coefficient  Atom+Function         Bfn.  Coefficient  Atom+Function  
  ----- ------------  ---------------      ----- ------------  ---------------
    60      5.183538  2 O  s                  5      4.242890  1 C  s          
   115      4.143718  3 O  s                 30     -3.410838  1 C  dxx        
    33     -3.280274  1 C  dyy              170     -3.185687  4 O  s          
    16     -2.887499  1 C  py                35     -2.765697  1 C  dzz        
    72     -2.664553  2 O  pz               248      2.229539  6 H  s          

 Vector   42  Occ=0.000000D+00  E= 2.850196D-01
              MO Center= -8.0D-02, -1.2D-01,  3.5D-01, r^2= 1.2D+01
   Bfn.  Coefficient  Atom+Function         Bfn.  Coefficient  Atom+Function  
  ----- ------------  ---------------      ----- ------------  ---------------
   170     20.870357  4 O  s                 60     13.393391  2 O  s          
     4     -8.449295  1 C  s                  5     -5.864162  1 C  s          
   248     -5.816094  6 H  s                 35     -5.711068  1 C  dzz        
    33     -5.551143  1 C  dyy               30     -5.431197  1 C  dxx        
   182      4.294460  4 O  pz               181      4.067644  4 O  py         

 Vector   43  Occ=0.000000D+00  E= 2.879805D-01
              MO Center= -9.8D-02, -2.3D-02,  8.7D-01, r^2= 1.2D+01
   Bfn.  Coefficient  Atom+Function         Bfn.  Coefficient  Atom+Function  
  ----- ------------  ---------------      ----- ------------  ---------------
   170     10.005238  4 O  s                115     -7.848822  3 O  s          
   223      6.082791  5 H  s                248     -5.632290  6 H  s          
    34     -4.362423  1 C  dyz              181      4.056043  4 O  py         
   257     -3.908354  6 H  py                 5     -3.857569  1 C  s          
   169      3.581953  4 O  s                233     -3.342183  5 H  pz         

 Vector   44  Occ=0.000000D+00  E= 3.087860D-01
              MO Center= -1.9D-01,  2.7D-01,  4.6D-01, r^2= 7.6D+00
   Bfn.  Coefficient  Atom+Function         Bfn.  Coefficient  Atom+Function  
  ----- ------------  ---------------      ----- ------------  ---------------
   170      5.864340  4 O  s                115      5.368402  3 O  s          
     4     -4.728295  1 C  s                 33     -3.316442  1 C  dyy        
    32      2.397310  1 C  dxz                5     -2.223718  1 C  s          
    30     -2.180457  1 C  dxx               12      2.113698  1 C  px         
    34     -1.939772  1 C  dyz               35     -1.876241  1 C  dzz        

 Vector   45  Occ=0.000000D+00  E= 3.110287D-01
              MO Center=  2.5D-01, -3.2D-02,  2.3D-01, r^2= 1.1D+01
   Bfn.  Coefficient  Atom+Function         Bfn.  Coefficient  Atom+Function  
  ----- ------------  ---------------      ----- ------------  ---------------
   115     14.106626  3 O  s                  4    -10.060328  1 C  s          
   170      8.874493  4 O  s                 33     -5.900117  1 C  dyy        
     5     -5.298141  1 C  s                 30     -5.317562  1 C  dxx        
    60      4.868081  2 O  s                 35     -4.599404  1 C  dzz        
   126     -2.986867  3 O  py               182      2.673805  4 O  pz         

 Vector   46  Occ=0.000000D+00  E= 3.346582D-01
              MO Center=  2.3D-02,  1.3D-01,  1.1D+00, r^2= 8.7D+00
   Bfn.  Coefficient  Atom+Function         Bfn.  Coefficient  Atom+Function  
  ----- ------------  ---------------      ----- ------------  ---------------
   170     10.706793  4 O  s                 60      9.987029  2 O  s          
   248     -9.738930  6 H  s                115      8.076515  3 O  s          
     5     -6.849393  1 C  s                  4     -5.231842  1 C  s          
    72     -4.650063  2 O  pz                30     -3.498485  1 C  dxx        
    33     -3.097300  1 C  dyy              182      2.662605  4 O  pz         

 Vector   47  Occ=0.000000D+00  E= 3.482304D-01
              MO Center= -2.6D-01, -4.4D-01,  6.5D-01, r^2= 1.0D+01
   Bfn.  Coefficient  Atom+Function         Bfn.  Coefficient  Atom+Function  
  ----- ------------  ---------------      ----- ------------  ---------------
   170     10.011909  4 O  s                248     -6.998975  6 H  s          
    60     -5.322854  2 O  s                  5      5.045736  1 C  s          
    59     -4.227323  2 O  s                 72      3.781488  2 O  pz         
   258      3.520312  6 H  pz                71      3.447838  2 O  py         
   233     -3.357736  5 H  pz               181     -2.981774  4 O  py         

 Vector   48  Occ=0.000000D+00  E= 3.538728D-01
              MO Center= -1.4D-01, -2.7D-01,  5.9D-01, r^2= 8.3D+00
   Bfn.  Coefficient  Atom+Function         Bfn.  Coefficient  Atom+Function  
  ----- ------------  ---------------      ----- ------------  ---------------
    31      2.859129  1 C  dxy               70      2.261838  2 O  px         
    33     -2.145865  1 C  dyy               30      2.110633  1 C  dxx        
   231     -1.812254  5 H  px                12     -1.618292  1 C  px         
   122     -1.301974  3 O  px               177      1.179753  4 O  px         
    13      1.044013  1 C  py               180      1.004306  4 O  px         

 Vector   49  Occ=0.000000D+00  E= 3.731753D-01
              MO Center= -2.0D-02, -1.6D-01, -5.6D-01, r^2= 7.9D+00
   Bfn.  Coefficient  Atom+Function         Bfn.  Coefficient  Atom+Function  
  ----- ------------  ---------------      ----- ------------  ---------------
    12      3.959639  1 C  px               180     -2.437175  4 O  px         
    13     -2.382295  1 C  py                32     -2.216120  1 C  dxz        
    34      1.819060  1 C  dyz              125     -1.767057  3 O  px         
    15      1.506030  1 C  px               256      1.512027  6 H  px         
   181      1.444282  4 O  py               122     -1.208006  3 O  px         

 Vector   50  Occ=0.000000D+00  E= 3.779578D-01
              MO Center= -2.5D-02, -1.1D-01, -5.1D-01, r^2= 7.6D+00
   Bfn.  Coefficient  Atom+Function         Bfn.  Coefficient  Atom+Function  
  ----- ------------  ---------------      ----- ------------  ---------------
     4     16.411253  1 C  s                 60    -14.555502  2 O  s          
   115    -12.010780  3 O  s                  5      9.449700  1 C  s          
   248     -8.251208  6 H  s                 35      6.632655  1 C  dzz        
   223      6.646562  5 H  s                170     -4.900239  4 O  s          
    33      4.343399  1 C  dyy              181     -3.718638  4 O  py         

 Vector   51  Occ=0.000000D+00  E= 3.881626D-01
              MO Center= -2.5D-01, -4.2D-01,  8.1D-02, r^2= 7.6D+00
   Bfn.  Coefficient  Atom+Function         Bfn.  Coefficient  Atom+Function  
  ----- ------------  ---------------      ----- ------------  ---------------
     4     16.714509  1 C  s                170    -12.244113  4 O  s          
   223    -11.420548  5 H  s                 35      7.373002  1 C  dzz        
     5      7.287511  1 C  s                115     -5.988470  3 O  s          
    33      3.916237  1 C  dyy               31      2.613103  1 C  dxy        
    72      2.595219  2 O  pz                30      2.444719  1 C  dxx        

 Vector   52  Occ=0.000000D+00  E= 4.378927D-01
              MO Center= -9.3D-02, -1.5D-01,  2.4D-01, r^2= 7.7D+00
   Bfn.  Coefficient  Atom+Function         Bfn.  Coefficient  Atom+Function  
  ----- ------------  ---------------      ----- ------------  ---------------
    60      7.946975  2 O  s                223     -6.808432  5 H  s          
    13     -6.714212  1 C  py                35     -4.322911  1 C  dzz        
    12     -3.253127  1 C  px               257     -3.134308  6 H  py         
    31      2.909019  1 C  dxy              181      2.747772  4 O  py         
   248     -2.702711  6 H  s                170      2.632646  4 O  s          

 Vector   53  Occ=0.000000D+00  E= 4.541948D-01
              MO Center=  2.3D-01,  5.9D-01,  6.5D-01, r^2= 8.7D+00
   Bfn.  Coefficient  Atom+Function         Bfn.  Coefficient  Atom+Function  
  ----- ------------  ---------------      ----- ------------  ---------------
   223     18.526863  5 H  s                  4    -16.276242  1 C  s          
   115     11.022227  3 O  s                 60     -9.894915  2 O  s          
    31     -9.538984  1 C  dxy               33     -8.714883  1 C  dyy        
   248      8.068767  6 H  s                 13     -6.771738  1 C  py         
   233     -5.884344  5 H  pz               114      5.419346  3 O  s          

 Vector   54  Occ=0.000000D+00  E= 4.603625D-01
              MO Center= -1.5D-01, -2.8D-01,  3.8D-01, r^2= 8.4D+00
   Bfn.  Coefficient  Atom+Function         Bfn.  Coefficient  Atom+Function  
  ----- ------------  ---------------      ----- ------------  ---------------
   170     22.804443  4 O  s                  4    -20.531852  1 C  s          
    60     17.273071  2 O  s                248    -17.253803  6 H  s          
    14     -9.280743  1 C  pz                 5     -8.436221  1 C  s          
    35     -7.264090  1 C  dzz               59      6.049311  2 O  s          
    34     -4.954503  1 C  dyz              223     -4.536918  5 H  s          

 Vector   55  Occ=0.000000D+00  E= 4.844556D-01
              MO Center=  4.1D-02,  2.5D-02,  4.5D-04, r^2= 8.8D+00
   Bfn.  Coefficient  Atom+Function         Bfn.  Coefficient  Atom+Function  
  ----- ------------  ---------------      ----- ------------  ---------------
   170     25.600311  4 O  s                  4    -16.846329  1 C  s          
    14     11.542071  1 C  pz                60     -8.995329  2 O  s          
    33     -8.406297  1 C  dyy               31     -7.731281  1 C  dxy        
    34     -7.699405  1 C  dyz               13      7.487820  1 C  py         
   248     -6.426555  6 H  s                169      5.853731  4 O  s          

 Vector   56  Occ=0.000000D+00  E= 4.998308D-01
              MO Center= -2.8D-01, -4.3D-01, -1.8D-01, r^2= 9.4D+00
   Bfn.  Coefficient  Atom+Function         Bfn.  Coefficient  Atom+Function  
  ----- ------------  ---------------      ----- ------------  ---------------
   248     20.159323  6 H  s                115     -9.896385  3 O  s          
    13      8.704845  1 C  py               170     -7.233034  4 O  s          
    14     -6.898247  1 C  pz                34     -6.435775  1 C  dyz        
    12      5.331189  1 C  px               181      4.017990  4 O  py         
    32     -3.428600  1 C  dxz              126      3.324281  3 O  py         

 Vector   57  Occ=0.000000D+00  E= 5.236061D-01
              MO Center= -1.6D-02, -5.3D-01,  1.0D-01, r^2= 8.4D+00
   Bfn.  Coefficient  Atom+Function         Bfn.  Coefficient  Atom+Function  
  ----- ------------  ---------------      ----- ------------  ---------------
   223     20.518368  5 H  s                248    -16.657734  6 H  s          
   170     15.419001  4 O  s                 60    -14.722043  2 O  s          
    34    -12.682135  1 C  dyz                4     11.014998  1 C  s          
   115    -11.035890  3 O  s                 31      8.392092  1 C  dxy        
    32     -6.095946  1 C  dxz              114     -5.599811  3 O  s          

 Vector   58  Occ=0.000000D+00  E= 5.335179D-01
              MO Center= -6.2D-01, -3.5D-01, -9.8D-02, r^2= 7.9D+00
   Bfn.  Coefficient  Atom+Function         Bfn.  Coefficient  Atom+Function  
  ----- ------------  ---------------      ----- ------------  ---------------
   223     19.664647  5 H  s                170     18.523493  4 O  s          
   248    -17.371539  6 H  s                 60    -13.637845  2 O  s          
    34    -12.149562  1 C  dyz              115     -9.513961  3 O  s          
     4      7.663899  1 C  s                 32     -6.835490  1 C  dxz        
    31      5.800139  1 C  dxy              114     -5.233626  3 O  s          

 Vector   59  Occ=0.000000D+00  E= 5.465689D-01
              MO Center=  1.1D-01,  1.5D-01,  5.6D-01, r^2= 6.9D+00
   Bfn.  Coefficient  Atom+Function         Bfn.  Coefficient  Atom+Function  
  ----- ------------  ---------------      ----- ------------  ---------------
    32      2.314147  1 C  dxz               87      1.709527  2 O  dxz        
    31     -1.700399  1 C  dxy                4     -1.604673  1 C  s          
   180     -1.545682  4 O  px               223     -1.550683  5 H  s          
   115      1.498406  3 O  s                197     -1.361500  4 O  dxz        
    86      1.186760  2 O  dxy              231     -1.044537  5 H  px         

 Vector   60  Occ=0.000000D+00  E= 5.802683D-01
              MO Center= -2.8D-01, -5.6D-01,  2.0D-02, r^2= 7.1D+00
   Bfn.  Coefficient  Atom+Function         Bfn.  Coefficient  Atom+Function  
  ----- ------------  ---------------      ----- ------------  ---------------
   223      9.291303  5 H  s                248      7.060430  6 H  s          
    14     -6.322553  1 C  pz               170     -5.763706  4 O  s          
   114     -5.419702  3 O  s                222     -3.943907  5 H  s          
   179      3.018398  4 O  pz                35     -2.829071  1 C  dzz        
   123      2.727716  3 O  py                47      2.569527  1 C  fxxy       

 Vector   61  Occ=0.000000D+00  E= 5.897105D-01
              MO Center= -3.8D-01, -5.2D-01,  5.5D-01, r^2= 6.2D+00
   Bfn.  Coefficient  Atom+Function         Bfn.  Coefficient  Atom+Function  
  ----- ------------  ---------------      ----- ------------  ---------------
    60      7.882583  2 O  s                223     -7.424299  5 H  s          
     4      5.323051  1 C  s                170      5.212110  4 O  s          
   248     -2.846476  6 H  s                 50      2.458117  1 C  fxyz       
    31      2.424628  1 C  dxy               13      2.328665  1 C  py         
   196     -2.112798  4 O  dxy               69      2.042840  2 O  pz         

 Vector   62  Occ=0.000000D+00  E= 5.973397D-01
              MO Center= -2.4D-02, -1.5D-01,  6.3D-01, r^2= 6.9D+00
   Bfn.  Coefficient  Atom+Function         Bfn.  Coefficient  Atom+Function  
  ----- ------------  ---------------      ----- ------------  ---------------
   170     16.540288  4 O  s                 60     13.908403  2 O  s          
   223    -13.774164  5 H  s                248    -12.141321  6 H  s          
     4      8.510074  1 C  s                 13      4.763644  1 C  py         
   114     -4.724659  3 O  s                 31      4.284955  1 C  dxy        
   222      4.261302  5 H  s                 53      4.011137  1 C  fyyz       

 Vector   63  Occ=0.000000D+00  E= 6.164838D-01
              MO Center= -1.3D-02,  7.1D-02,  6.0D-01, r^2= 6.2D+00
   Bfn.  Coefficient  Atom+Function         Bfn.  Coefficient  Atom+Function  
  ----- ------------  ---------------      ----- ------------  ---------------
   223      3.198676  5 H  s                170     -2.474637  4 O  s          
    60     -2.015270  2 O  s                 67      2.015545  2 O  px         
   248      1.896949  6 H  s                231     -1.682499  5 H  px         
    86      1.591749  2 O  dxy                5      1.455634  1 C  s          
    32     -1.435697  1 C  dxz              197      1.429515  4 O  dxz        

 Vector   64  Occ=0.000000D+00  E= 6.388971D-01
              MO Center= -1.1D-01,  8.8D-03,  3.1D-01, r^2= 7.5D+00
   Bfn.  Coefficient  Atom+Function         Bfn.  Coefficient  Atom+Function  
  ----- ------------  ---------------      ----- ------------  ---------------
   115     11.803383  3 O  s                169    -10.639007  4 O  s          
     4      8.492512  1 C  s                 33     -7.857216  1 C  dyy        
    30     -7.468119  1 C  dxx              178     -5.273492  4 O  py         
    34      5.206913  1 C  dyz               35     -4.892015  1 C  dzz        
    60      4.875938  2 O  s                  5      4.751450  1 C  s          

 Vector   65  Occ=0.000000D+00  E= 6.493890D-01
              MO Center=  3.4D-01,  6.4D-01, -2.5D-01, r^2= 6.6D+00
   Bfn.  Coefficient  Atom+Function         Bfn.  Coefficient  Atom+Function  
  ----- ------------  ---------------      ----- ------------  ---------------
   170      2.243596  4 O  s                115      2.036454  3 O  s          
    15      1.543544  1 C  px               125     -1.505389  3 O  px         
   143     -1.317020  3 O  dyy               14      1.254028  1 C  pz         
   223     -1.224033  5 H  s                197     -1.202827  4 O  dxz        
   178     -1.180654  4 O  py               180     -1.172044  4 O  px         

 Vector   66  Occ=0.000000D+00  E= 6.588650D-01
              MO Center= -1.1D-02,  7.9D-03,  2.9D-02, r^2= 7.2D+00
   Bfn.  Coefficient  Atom+Function         Bfn.  Coefficient  Atom+Function  
  ----- ------------  ---------------      ----- ------------  ---------------
    14      5.202433  1 C  pz                59      4.715730  2 O  s          
   248      4.500341  6 H  s                223     -3.816715  5 H  s          
   115      3.533620  3 O  s                 35      3.119784  1 C  dzz        
    34      3.044740  1 C  dyz              114      2.939316  3 O  s          
    32      2.810106  1 C  dxz               55     -2.802547  1 C  fzzz       

 Vector   67  Occ=0.000000D+00  E= 6.620490D-01
              MO Center=  2.8D-01,  1.4D-01, -4.4D-02, r^2= 7.0D+00
   Bfn.  Coefficient  Atom+Function         Bfn.  Coefficient  Atom+Function  
  ----- ------------  ---------------      ----- ------------  ---------------
   248      5.313821  6 H  s                 14      4.384351  1 C  pz         
   223     -3.678639  5 H  s                 59      3.641817  2 O  s          
   115      3.645856  3 O  s                 34      3.438936  1 C  dyz        
    11     -2.854786  1 C  pz                55     -2.705574  1 C  fzzz       
    60     -2.414190  2 O  s                170     -2.261878  4 O  s          

 Vector   68  Occ=0.000000D+00  E= 6.961726D-01
              MO Center=  1.5D-02, -1.6D-02,  2.9D-01, r^2= 7.5D+00
   Bfn.  Coefficient  Atom+Function         Bfn.  Coefficient  Atom+Function  
  ----- ------------  ---------------      ----- ------------  ---------------
   114      8.695514  3 O  s                248     -8.699060  6 H  s          
   115     -8.010035  3 O  s                 33      7.338461  1 C  dyy        
    53      6.680227  1 C  fyyz             223      6.353934  5 H  s          
     4      5.455765  1 C  s                 31      4.942737  1 C  dxy        
    11      4.604030  1 C  pz               123     -4.468657  3 O  py         

 Vector   69  Occ=0.000000D+00  E= 7.074897D-01
              MO Center=  1.6D-01,  2.9D-01, -2.4D-01, r^2= 6.0D+00
   Bfn.  Coefficient  Atom+Function         Bfn.  Coefficient  Atom+Function  
  ----- ------------  ---------------      ----- ------------  ---------------
   115      6.573251  3 O  s                169      4.771102  4 O  s          
    10      3.973825  1 C  py               178      3.762628  4 O  py         
    47      3.720853  1 C  fxxy             199      3.366909  4 O  dyz        
    52      2.953008  1 C  fyyy             114     -2.792852  3 O  s          
    54      2.743467  1 C  fyzz              53      2.667129  1 C  fyyz       

 Vector   70  Occ=0.000000D+00  E= 7.113183D-01
              MO Center=  1.4D-01,  3.7D-01, -2.1D-01, r^2= 6.1D+00
   Bfn.  Coefficient  Atom+Function         Bfn.  Coefficient  Atom+Function  
  ----- ------------  ---------------      ----- ------------  ---------------
   115      7.178761  3 O  s                169      6.308714  4 O  s          
    53      3.851775  1 C  fyyz              13     -3.815614  1 C  py         
    10      3.714558  1 C  py                52      3.642919  1 C  fyyy       
    59     -3.030279  2 O  s                178      2.944238  4 O  py         
    47      2.686798  1 C  fxxy              67     -2.688114  2 O  px         

 Vector   71  Occ=0.000000D+00  E= 7.181753D-01
              MO Center=  1.5D-01,  2.7D-01, -3.1D-01, r^2= 8.6D+00
   Bfn.  Coefficient  Atom+Function         Bfn.  Coefficient  Atom+Function  
  ----- ------------  ---------------      ----- ------------  ---------------
   170     16.711165  4 O  s                  4    -11.461933  1 C  s          
    33    -10.241507  1 C  dyy               35     -7.108395  1 C  dzz        
   114      6.547783  3 O  s                 31     -6.469068  1 C  dxy        
   248      6.385236  6 H  s                 54     -6.023525  1 C  fyzz       
    13      5.885685  1 C  py                30     -5.840091  1 C  dxx        

 Vector   72  Occ=0.000000D+00  E= 7.438084D-01
              MO Center=  3.9D-02,  1.4D-01,  7.6D-01, r^2= 7.0D+00
   Bfn.  Coefficient  Atom+Function         Bfn.  Coefficient  Atom+Function  
  ----- ------------  ---------------      ----- ------------  ---------------
   170     15.262079  4 O  s                 60     12.855014  2 O  s          
   248     -8.277802  6 H  s                  5     -7.031115  1 C  s          
   115      6.878360  3 O  s                222     -5.255710  5 H  s          
    35     -4.590540  1 C  dzz              114     -4.544536  3 O  s          
   169      4.550664  4 O  s                 33     -4.248049  1 C  dyy        

 Vector   73  Occ=0.000000D+00  E= 7.658547D-01
              MO Center= -7.0D-01, -1.5D+00,  3.0D-01, r^2= 5.9D+00
   Bfn.  Coefficient  Atom+Function         Bfn.  Coefficient  Atom+Function  
  ----- ------------  ---------------      ----- ------------  ---------------
   247      9.398772  6 H  s                223     -8.348461  5 H  s          
   169     -8.241082  4 O  s                 60      6.227099  2 O  s          
    35      3.727312  1 C  dzz               59      3.513796  2 O  s          
    69     -3.309871  2 O  pz               258     -3.323652  6 H  pz         
    13      3.141675  1 C  py               178      3.042389  4 O  py         

 Vector   74  Occ=0.000000D+00  E= 7.757768D-01
              MO Center=  3.0D-02,  8.1D-02,  6.7D-01, r^2= 8.9D+00
   Bfn.  Coefficient  Atom+Function         Bfn.  Coefficient  Atom+Function  
  ----- ------------  ---------------      ----- ------------  ---------------
     4     18.567455  1 C  s                115    -17.125432  3 O  s          
    60    -15.523913  2 O  s                  5     10.903791  1 C  s          
    33      8.909437  1 C  dyy               35      8.199098  1 C  dzz        
   170     -8.217559  4 O  s                248     -6.705043  6 H  s          
    30      5.859827  1 C  dxx               31      4.986796  1 C  dxy        

 Vector   75  Occ=0.000000D+00  E= 7.845490D-01
              MO Center= -1.5D-01, -2.7D-01,  1.0D-01, r^2= 5.7D+00
   Bfn.  Coefficient  Atom+Function         Bfn.  Coefficient  Atom+Function  
  ----- ------------  ---------------      ----- ------------  ---------------
   177      3.578968  4 O  px                32      3.006846  1 C  dxz        
   178     -2.536111  4 O  py                34     -2.171052  1 C  dyz        
     4     -1.898487  1 C  s                180      1.851303  4 O  px         
    33     -1.744044  1 C  dyy              170      1.719289  4 O  s          
   256     -1.632865  6 H  px               223      1.377432  5 H  s          

 Vector   76  Occ=0.000000D+00  E= 8.084840D-01
              MO Center=  8.3D-02,  1.2D-02,  1.5D-01, r^2= 4.9D+00
   Bfn.  Coefficient  Atom+Function         Bfn.  Coefficient  Atom+Function  
  ----- ------------  ---------------      ----- ------------  ---------------
   122      3.556550  3 O  px               177     -2.450742  4 O  px         
    30     -2.280740  1 C  dxx               67     -2.189737  2 O  px         
    33      2.092851  1 C  dyy                4      1.840866  1 C  s          
    31     -1.761997  1 C  dxy              123     -1.723870  3 O  py         
    50      1.419822  1 C  fxyz             178      1.321143  4 O  py         

 Vector   77  Occ=0.000000D+00  E= 8.125234D-01
              MO Center=  1.1D-01,  4.3D-01,  1.2D+00, r^2= 6.2D+00
   Bfn.  Coefficient  Atom+Function         Bfn.  Coefficient  Atom+Function  
  ----- ------------  ---------------      ----- ------------  ---------------
    59     10.717662  2 O  s                  4     -8.696445  1 C  s          
   170     -8.070186  4 O  s                223     -5.583491  5 H  s          
   115     -4.569258  3 O  s                 13      4.004101  1 C  py         
    69     -3.710580  2 O  pz               169      3.604664  4 O  s          
   248      3.377098  6 H  s                 90      3.292370  2 O  dzz        

 Vector   78  Occ=0.000000D+00  E= 8.303299D-01
              MO Center= -3.5D-01, -6.4D-01,  2.6D-01, r^2= 7.9D+00
   Bfn.  Coefficient  Atom+Function         Bfn.  Coefficient  Atom+Function  
  ----- ------------  ---------------      ----- ------------  ---------------
   223     -4.964650  5 H  s                 13      4.876656  1 C  py         
   115     -4.880645  3 O  s                 59     -4.386564  2 O  s          
    35      3.794617  1 C  dzz               14      2.991457  1 C  pz         
    54     -2.702703  1 C  fyzz             114      2.641319  3 O  s          
    12      2.555901  1 C  px                31     -2.142923  1 C  dxy        

 Vector   79  Occ=0.000000D+00  E= 8.417415D-01
              MO Center= -3.5D-01, -7.3D-01,  4.3D-01, r^2= 6.1D+00
   Bfn.  Coefficient  Atom+Function         Bfn.  Coefficient  Atom+Function  
  ----- ------------  ---------------      ----- ------------  ---------------
   223      3.990474  5 H  s                 60     -3.180904  2 O  s          
     4      2.809455  1 C  s                 31     -2.147022  1 C  dxy        
    14      1.699453  1 C  pz               169     -1.536835  4 O  s          
    34     -1.476797  1 C  dyz               54     -1.416273  1 C  fyzz       
    30     -1.321946  1 C  dxx               68      1.312797  2 O  py         

 Vector   80  Occ=0.000000D+00  E= 8.544210D-01
              MO Center= -1.4D-01, -1.5D-01, -2.9D-01, r^2= 6.5D+00
   Bfn.  Coefficient  Atom+Function         Bfn.  Coefficient  Atom+Function  
  ----- ------------  ---------------      ----- ------------  ---------------
     4     21.749897  1 C  s                170    -12.501650  4 O  s          
    60    -11.950087  2 O  s                 35      9.270510  1 C  dzz        
   169     -7.313738  4 O  s                  5      6.516995  1 C  s          
   223      6.353756  5 H  s                115     -5.613478  3 O  s          
   178     -3.774057  4 O  py               198     -3.778983  4 O  dyy        

 Vector   81  Occ=0.000000D+00  E= 8.852044D-01
              MO Center= -2.4D-02,  4.0D-02,  6.6D-01, r^2= 5.6D+00
   Bfn.  Coefficient  Atom+Function         Bfn.  Coefficient  Atom+Function  
  ----- ------------  ---------------      ----- ------------  ---------------
    12      3.946711  1 C  px               177     -3.118338  4 O  px         
   197     -2.480632  4 O  dxz              196     -1.926130  4 O  dxy        
   122     -1.717317  3 O  px               123      1.378908  3 O  py         
   242      1.335393  5 H  dxz              248      1.337473  6 H  s          
    52     -1.299258  1 C  fyyy              47      1.218862  1 C  fxxy       

 Vector   82  Occ=0.000000D+00  E= 8.978753D-01
              MO Center= -2.3D-01, -3.8D-01,  6.4D-01, r^2= 5.8D+00
   Bfn.  Coefficient  Atom+Function         Bfn.  Coefficient  Atom+Function  
  ----- ------------  ---------------      ----- ------------  ---------------
   170      3.488066  4 O  s                248     -3.128197  6 H  s          
   223      2.554270  5 H  s                  4     -2.210672  1 C  s          
    12      1.896382  1 C  px                32     -1.640252  1 C  dxz        
    14      1.596482  1 C  pz                34     -1.369237  1 C  dyz        
   122     -1.355500  3 O  px                60     -1.250820  2 O  s          

 Vector   83  Occ=0.000000D+00  E= 9.046871D-01
              MO Center=  3.5D-03, -1.5D-02,  5.3D-01, r^2= 6.4D+00
   Bfn.  Coefficient  Atom+Function         Bfn.  Coefficient  Atom+Function  
  ----- ------------  ---------------      ----- ------------  ---------------
    14      9.025639  1 C  pz               169      7.457790  4 O  s          
   170      5.543012  4 O  s                 34     -4.701547  1 C  dyz        
     4     -4.481725  1 C  s                 60     -4.394168  2 O  s          
   223      4.298445  5 H  s                 47      4.195597  1 C  fxxy       
    49      4.200977  1 C  fxyy             248     -3.955869  6 H  s          

 Vector   84  Occ=0.000000D+00  E= 9.270905D-01
              MO Center= -3.7D-01, -7.0D-01,  2.3D-01, r^2= 6.3D+00
   Bfn.  Coefficient  Atom+Function         Bfn.  Coefficient  Atom+Function  
  ----- ------------  ---------------      ----- ------------  ---------------
   170    -14.565155  4 O  s                  4     13.466793  1 C  s          
   248     13.476064  6 H  s                223     -9.230017  5 H  s          
    13     -8.567048  1 C  py                12     -4.038410  1 C  px         
   169     -3.773487  4 O  s                 31      3.444148  1 C  dxy        
    33      3.432156  1 C  dyy                5      3.288964  1 C  s          

 Vector   85  Occ=0.000000D+00  E= 9.565162D-01
              MO Center= -3.4D-02, -8.1D-02,  2.9D-01, r^2= 6.7D+00
   Bfn.  Coefficient  Atom+Function         Bfn.  Coefficient  Atom+Function  
  ----- ------------  ---------------      ----- ------------  ---------------
    14     13.416147  1 C  pz                60    -10.664138  2 O  s          
   248      7.984190  6 H  s                223      7.819233  5 H  s          
   115      4.969607  3 O  s                 31     -4.936231  1 C  dxy        
    13     -4.263245  1 C  py               199     -4.107476  4 O  dyz        
   170     -4.057143  4 O  s                 35      4.035988  1 C  dzz        

 Vector   86  Occ=0.000000D+00  E= 9.714611D-01
              MO Center=  9.4D-02,  3.3D-01,  6.6D-01, r^2= 6.1D+00
   Bfn.  Coefficient  Atom+Function         Bfn.  Coefficient  Atom+Function  
  ----- ------------  ---------------      ----- ------------  ---------------
     4     22.764296  1 C  s                115    -12.423417  3 O  s          
    31      9.913781  1 C  dxy               13      9.002926  1 C  py         
    33      9.015849  1 C  dyy              114     -7.962251  3 O  s          
   170     -5.764462  4 O  s                 14     -4.771752  1 C  pz         
   124     -3.839631  3 O  pz                12      3.386689  1 C  px         

 Vector   87  Occ=0.000000D+00  E= 9.810617D-01
              MO Center=  5.4D-02, -4.5D-02,  2.5D-01, r^2= 5.2D+00
   Bfn.  Coefficient  Atom+Function         Bfn.  Coefficient  Atom+Function  
  ----- ------------  ---------------      ----- ------------  ---------------
     4     10.481862  1 C  s                170     -5.875374  4 O  s          
   115     -5.027243  3 O  s                 12      4.883221  1 C  px         
    31      4.645022  1 C  dxy               33      4.442509  1 C  dyy        
   114     -3.277247  3 O  s                 14     -2.789639  1 C  pz         
   248      2.552164  6 H  s                124     -2.402059  3 O  pz         

 Vector   88  Occ=0.000000D+00  E= 1.013227D+00
              MO Center= -5.9D-02, -8.4D-02, -2.8D-01, r^2= 6.4D+00
   Bfn.  Coefficient  Atom+Function         Bfn.  Coefficient  Atom+Function  
  ----- ------------  ---------------      ----- ------------  ---------------
   170     20.385207  4 O  s                 34    -18.700263  1 C  dyz        
    13     18.503556  1 C  py                60    -12.415236  2 O  s          
    32    -10.544217  1 C  dxz               14     10.483976  1 C  pz         
    12     10.067734  1 C  px               223      9.776392  5 H  s          
   115     -8.113338  3 O  s                248     -5.258751  6 H  s          

 Vector   89  Occ=0.000000D+00  E= 1.046595D+00
              MO Center= -1.9D-01, -2.4D-01,  1.1D+00, r^2= 6.2D+00
   Bfn.  Coefficient  Atom+Function         Bfn.  Coefficient  Atom+Function  
  ----- ------------  ---------------      ----- ------------  ---------------
   223     21.893040  5 H  s                170    -19.105005  4 O  s          
   248     17.297913  6 H  s                 60    -16.981578  2 O  s          
    13     -4.536276  1 C  py                71     -3.981656  2 O  py         
   114      3.989679  3 O  s                  5      3.655885  1 C  s          
    34      3.472119  1 C  dyz               35      3.333075  1 C  dzz        

 Vector   90  Occ=0.000000D+00  E= 1.055866D+00
              MO Center=  7.1D-02,  1.8D-01,  5.1D-01, r^2= 5.4D+00
   Bfn.  Coefficient  Atom+Function         Bfn.  Coefficient  Atom+Function  
  ----- ------------  ---------------      ----- ------------  ---------------
   122      4.421332  3 O  px                67      4.356389  2 O  px         
    87     -4.199713  2 O  dxz               49     -3.399089  1 C  fxyy       
    51     -3.351248  1 C  fxzz             177      3.162134  4 O  px         
    46     -2.977929  1 C  fxxx              12     -2.776098  1 C  px         
   142      2.763623  3 O  dxz                9     -2.579105  1 C  px         

 Vector   91  Occ=0.000000D+00  E= 1.087368D+00
              MO Center= -4.8D-01, -9.0D-01,  2.6D-01, r^2= 5.9D+00
   Bfn.  Coefficient  Atom+Function         Bfn.  Coefficient  Atom+Function  
  ----- ------------  ---------------      ----- ------------  ---------------
   248     26.746088  6 H  s                170    -15.552707  4 O  s          
   223     -7.430792  5 H  s                 14     -7.057510  1 C  pz         
[...]
   110      4.040075  2 O  fzzz              60      3.983866  2 O  s          

 Vector  265  Occ=0.000000D+00  E= 1.665588D+01
              MO Center=  6.1D-02,  2.9D-02, -5.5D-01, r^2= 2.1D+00
   Bfn.  Coefficient  Atom+Function         Bfn.  Coefficient  Atom+Function  
  ----- ------------  ---------------      ----- ------------  ---------------
   114     16.228513  3 O  s                169    -10.202989  4 O  s          
   112      9.057074  3 O  s                167     -6.814704  4 O  s          
   178     -4.881345  4 O  py               179     -4.663278  4 O  pz         
   123     -4.494092  3 O  py                13     -4.150762  1 C  py         
   170     -4.149058  4 O  s                 69      4.054888  2 O  pz         

 Vector  266  Occ=0.000000D+00  E= 1.673381D+01
              MO Center= -9.9D-02, -2.5D-01, -4.2D-01, r^2= 2.3D+00
   Bfn.  Coefficient  Atom+Function         Bfn.  Coefficient  Atom+Function  
  ----- ------------  ---------------      ----- ------------  ---------------
   167     12.080747  4 O  s                114     11.981888  3 O  s          
   112      8.736542  3 O  s                169      7.652211  4 O  s          
    57      5.340078  2 O  s                166      5.353494  4 O  s          
     4     -4.643431  1 C  s                 50      4.232287  1 C  fxyz       
    53      4.190367  1 C  fyyz              10     -3.997303  1 C  py         

 Vector  267  Occ=0.000000D+00  E= 1.711250D+01
              MO Center= -1.9D-01, -2.8D-01,  6.7D-01, r^2= 2.2D+00
   Bfn.  Coefficient  Atom+Function         Bfn.  Coefficient  Atom+Function  
  ----- ------------  ---------------      ----- ------------  ---------------
     4     16.665454  1 C  s                 59      8.120458  2 O  s          
    69      7.713802  2 O  pz                66      7.345381  2 O  pz         
    90     -6.251592  2 O  dzz               13     -5.287986  1 C  py         
    85     -5.253752  2 O  dxx              179     -5.188839  4 O  pz         
    88     -5.131691  2 O  dyy              176     -4.760034  4 O  pz         

 Vector  268  Occ=0.000000D+00  E= 1.783816D+01
              MO Center= -2.3D-01, -4.4D-01,  1.2D-01, r^2= 3.0D+00
   Bfn.  Coefficient  Atom+Function         Bfn.  Coefficient  Atom+Function  
  ----- ------------  ---------------      ----- ------------  ---------------
    14     13.489554  1 C  pz                69      9.033429  2 O  pz         
   178      8.032556  4 O  py                90     -7.799746  2 O  dzz        
   170      7.696922  4 O  s                 34     -7.541272  1 C  dyz        
    88     -7.187261  2 O  dyy              195      7.004904  4 O  dxx        
   167      6.735923  4 O  s                198      6.762257  4 O  dyy        

 Vector  269  Occ=0.000000D+00  E= 1.909783D+01
              MO Center=  2.9D-01,  4.8D-01, -3.2D-01, r^2= 2.8D+00
   Bfn.  Coefficient  Atom+Function         Bfn.  Coefficient  Atom+Function  
  ----- ------------  ---------------      ----- ------------  ---------------
    34    -17.903748  1 C  dyz               13     16.754615  1 C  py         
   248    -14.604047  6 H  s                115    -13.948498  3 O  s          
    50    -13.366545  1 C  fxyz              53    -12.100170  1 C  fyyz       
     4     11.774944  1 C  s                170     11.322784  4 O  s          
   112    -10.247885  3 O  s                 32     -9.660743  1 C  dxz        

 Vector  270  Occ=0.000000D+00  E= 2.838356D+01
              MO Center=  3.4D-02,  4.2D-02, -2.2D-02, r^2= 1.3D+00
   Bfn.  Coefficient  Atom+Function         Bfn.  Coefficient  Atom+Function  
  ----- ------------  ---------------      ----- ------------  ---------------
   114     49.941662  3 O  s                  2    -30.601717  1 C  s          
    53     17.087334  1 C  fyyz             123    -16.965829  3 O  py         
    10    -15.659562  1 C  py                 1    -15.108461  1 C  s          
    11     13.676153  1 C  pz                49    -12.535957  1 C  fxyy       
    47    -12.043064  1 C  fxxy              52    -11.924734  1 C  fyyy       


 center of mass
 --------------
 x =  -0.03385650 y =  -0.08322174 z =   0.12815825

 moments of inertia (a.u.)
 ------------------
         280.181958211778         -66.678915322645           7.488863606172
         -66.678915322645         191.990043401648          -4.547307214240
           7.488863606172          -4.547307214240         160.865221722748

     Multipole analysis of the density
     ---------------------------------

     L   x y z        total         alpha         beta         nuclear
     -   - - -        -----         -----         ----         -------
     0   0 0 0     -0.000000    -16.000000    -16.000000     32.000000

     1   1 0 0     -0.332771      0.625632      0.625632     -1.584035
     1   0 1 0     -0.492838      1.455888      1.455888     -3.404613
     1   0 0 1      1.035465     -2.312500     -2.312500      5.660465

     2   2 0 0    -16.543373    -18.134610    -18.134610     19.725848
     2   1 1 0      0.590120    -17.888811    -17.888811     36.367742
     2   1 0 1      0.933162      2.003612      2.003612     -3.074062
     2   0 2 0    -15.488798    -41.852484    -41.852484     68.216170
     2   0 1 1      1.671080     -1.170594     -1.170594      4.012268
     2   0 0 2    -17.074776    -50.346722    -50.346722     83.618667

 Line search: 
     step= 1.00 grad=-1.7D-07 hess=-4.2D-07 energy=   -264.851478 mode=accept  
 new step= 1.00                   predicted energy=   -264.851478

          --------
          Step   9
          --------


                         Geometry "geometry" -> "geometry"
                         ---------------------------------

 Output coordinates in angstroms (scale by  1.889725989 to convert to a.u.)

  No.       Tag          Charge          X              Y              Z
 ---- ---------------- ---------- -------------- -------------- --------------
    1 C                    6.0000     0.03151576     0.03922329    -0.00514599
    2 O                    8.0000    -0.10488488    -0.05325387     1.35442900
    3 O                    8.0000     0.55797217     0.94825802    -0.59460925
    4 O                    8.0000    -0.51027424    -1.03975318    -0.60645019
    5 H                    1.0000     0.30405522     0.75256234     1.72128109
    6 H                    1.0000    -0.87388964    -1.63155379     0.07802753

      Atomic Mass 
      ----------- 

      C                 12.000000
      O                 15.994910
      H                  1.007825


 Effective nuclear repulsion energy (a.u.)     122.1887174326

            Nuclear Dipole moment (a.u.) 
            ----------------------------
        X                 Y               Z
 ---------------- ---------------- ----------------
    -1.5840353962    -3.4046134815     5.6604646786


                                 NWChem DFT Module
                                 -----------------




 Summary of "ao basis" -> "ao basis" (cartesian)
 ------------------------------------------------------------------------------
       Tag                 Description            Shells   Functions and Types
 ---------------- ------------------------------  ------  ---------------------
 C                        aug-cc-pVTZ               14       55   5s4p3d2f
 O                        aug-cc-pVTZ               14       55   5s4p3d2f
 H                        aug-cc-pVTZ                9       25   4s3p2d



  The DFT is already converged 

         Total DFT energy =   -264.851478094152


            General Information
            -------------------
          SCF calculation type: DFT
          Wavefunction type:  closed shell.
          No. of atoms     :     6
          No. of electrons :    32
           Alpha electrons :    16
            Beta electrons :    16
          Charge           :     0
          Spin multiplicity:     1
          Use of symmetry is: off; symmetry adaption is: off
          Maximum number of iterations: 200
          AO basis - number of functions:   270
                     number of shells:    74
          Convergence on energy requested:  1.00D-06
          Convergence on density requested:  1.00D-05
          Convergence on gradient requested:  5.00D-04

              XC Information
              --------------
          PerdewBurkeErnzerhof Exchange Functional  1.000          
            Perdew 1991 LDA Correlation Functional  1.000 local    
           PerdewBurkeErnz. Correlation Functional  1.000 non-local

             Grid Information
             ----------------
          Grid used for XC integration:  medium    
          Radial quadrature: Mura-Knowles        
          Angular quadrature: Lebedev. 
          Tag              B.-S. Rad. Rad. Pts. Rad. Cut. Ang. Pts.
          ---              ---------- --------- --------- ---------
          C                   0.70       49          12.0       434
          O                   0.60       49          13.0       434
          H                   0.35       45          14.0       434
          Grid pruning is: on 
          Number of quadrature shells:   286
          Spatial weights used:  Erf1

          Convergence Information
          -----------------------
          Convergence aids based upon iterative change in 
          total energy or number of iterations. 
          Levelshifting, if invoked, occurs when the 
          HOMO/LUMO gap drops below (HL_TOL):  1.00D-02
          DIIS, if invoked, will attempt to extrapolate 
          using up to (NFOCK): 10 stored Fock matrices.

                    Damping(40%)  Levelshifting(0.0)       DIIS
                  --------------- ------------------- ---------------
          dE  on:    start            ASAP                start   
          dE off:  200 iters        200 iters           200 iters 


      Screening Tolerance Information
      -------------------------------
          Density screening/tol_rho:  1.00D-10
          AO Gaussian exp screening on grid/accAOfunc:  14
          CD Gaussian exp screening on grid/accCDfunc:  20
          XC Gaussian exp screening on grid/accXCfunc:  20
          Schwarz screening/accCoul:  1.00D-08



                            NWChem DFT Gradient Module
                            --------------------------



  charge          =   0.00
  wavefunction    = closed shell



                         DFT ENERGY GRADIENTS

    atom               coordinates                        gradient
                 x          y          z           x          y          z
   1 C       0.059556   0.074121  -0.009725    0.000126   0.000211  -0.000263
   2 O      -0.198204  -0.100635   2.559500    0.000007  -0.000029   0.000085
   3 O       1.054415   1.791948  -1.123649   -0.000098  -0.000155   0.000124
   4 O      -0.964278  -1.964849  -1.146025    0.000014  -0.000020  -0.000008
   5 H       0.574581   1.422137   3.252750   -0.000002   0.000025   0.000019
   6 H      -1.651412  -3.083190   0.147451   -0.000047  -0.000032   0.000043

                 ----------------------------------------
                 |  Time  |  1-e(secs)   |  2-e(secs)   |
                 ----------------------------------------
                 |  CPU   |       0.01   |       6.27   |
                 ----------------------------------------
                 |  WALL  |       0.01   |       6.30   |
                 ----------------------------------------

  Step       Energy      Delta E   Gmax     Grms     Xrms     Xmax   Walltime
  ---- ---------------- -------- -------- -------- -------- -------- --------
@    9    -264.85147809 -5.9D-07  0.00026  0.00010  0.00029  0.00062    371.1
                                     ok       ok       ok       ok  


      ----------------------
      Optimization converged
      ----------------------


  Step       Energy      Delta E   Gmax     Grms     Xrms     Xmax   Walltime
  ---- ---------------- -------- -------- -------- -------- -------- --------
@    9    -264.85147809 -5.9D-07  0.00026  0.00010  0.00029  0.00062    371.1
                                     ok       ok       ok       ok  



                         Geometry "geometry" -> "geometry"
                         ---------------------------------

 Output coordinates in angstroms (scale by  1.889725989 to convert to a.u.)

  No.       Tag          Charge          X              Y              Z
 ---- ---------------- ---------- -------------- -------------- --------------
    1 C                    6.0000     0.03151576     0.03922329    -0.00514599
    2 O                    8.0000    -0.10488488    -0.05325387     1.35442900
    3 O                    8.0000     0.55797217     0.94825802    -0.59460925
    4 O                    8.0000    -0.51027424    -1.03975318    -0.60645019
    5 H                    1.0000     0.30405522     0.75256234     1.72128109
    6 H                    1.0000    -0.87388964    -1.63155379     0.07802753

      Atomic Mass 
      ----------- 

      C                 12.000000
      O                 15.994910
      H                  1.007825


 Effective nuclear repulsion energy (a.u.)     122.1887174326

            Nuclear Dipole moment (a.u.) 
            ----------------------------
        X                 Y               Z
 ---------------- ---------------- ----------------
    -1.5840353962    -3.4046134815     5.6604646786

 ==============================================================================
                                internuclear distances
 ------------------------------------------------------------------------------
       center one      |      center two      | atomic units |  angstroms
 ------------------------------------------------------------------------------
    2 O                |   1 C                |     2.58803  |     1.36953
    3 O                |   1 C                |     2.27629  |     1.20456
    4 O                |   1 C                |     2.54888  |     1.34881
    5 H                |   2 O                |     1.84299  |     0.97527
    6 H                |   4 O                |     1.84280  |     0.97517
 ------------------------------------------------------------------------------
                         number of included internuclear distances:          5
 ==============================================================================



 ==============================================================================
                                 internuclear angles
 ------------------------------------------------------------------------------
        center 1       |       center 2       |       center 3       |  degrees
 ------------------------------------------------------------------------------
    2 O                |   1 C                |   3 O                |   125.47
    2 O                |   1 C                |   4 O                |   110.40
    3 O                |   1 C                |   4 O                |   124.13
    1 C                |   2 O                |   5 H                |   106.01
    1 C                |   4 O                |   6 H                |   108.80
 ------------------------------------------------------------------------------
                            number of included internuclear angles:          5
 ==============================================================================




 Task  times  cpu:      361.5s     wall:      371.0s


                                NWChem Input Module
                                -------------------


 Summary of allocated global arrays
-----------------------------------
  No active global arrays


MA_summarize_allocated_blocks: starting scan ...
MA_summarize_allocated_blocks: scan completed: 0 heap blocks, 0 stack blocks
MA usage statistics:

	allocation statistics:
					      heap	     stack
					      ----	     -----
	current number of blocks	         0	         0
	maximum number of blocks	        24	        53
	current total bytes		         0	         0
	maximum total bytes		 268878952	  42599272
	maximum total K-bytes		    268879	     42600
	maximum total M-bytes		       269	        43


                                     CITATION
                                     --------
                Please cite the following reference when publishing
                           results obtained with NWChem:

          E. Apra, E. J. Bylaska, W. A. de Jong, N. Govind, K. Kowalski,
       T. P. Straatsma, M. Valiev, H. J. J. van Dam, Y. Alexeev, J. Anchell,
       V. Anisimov, F. W. Aquino, R. Atta-Fynn, J. Autschbach, N. P. Bauman,
     J. C. Becca, D. E. Bernholdt, K. Bhaskaran-Nair, S. Bogatko, P. Borowski,
         J. Boschen, J. Brabec, A. Bruner, E. Cauet, Y. Chen, G. N. Chuev,
      C. J. Cramer, J. Daily, M. J. O. Deegan, T. H. Dunning Jr., M. Dupuis,
   K. G. Dyall, G. I. Fann, S. A. Fischer, A. Fonari, H. Fruchtl, L. Gagliardi,
      J. Garza, N. Gawande, S. Ghosh, K. Glaesemann, A. W. Gotz, J. Hammond,
       V. Helms, E. D. Hermes, K. Hirao, S. Hirata, M. Jacquelin, L. Jensen,
   B. G. Johnson, H. Jonsson, R. A. Kendall, M. Klemm, R. Kobayashi, V. Konkov,
      S. Krishnamoorthy, M. Krishnan, Z. Lin, R. D. Lins, R. J. Littlefield,
      A. J. Logsdail, K. Lopata, W. Ma, A. V. Marenich, J. Martin del Campo,
   D. Mejia-Rodriguez, J. E. Moore, J. M. Mullin, T. Nakajima, D. R. Nascimento,
    J. A. Nichols, P. J. Nichols, J. Nieplocha, A. Otero-de-la-Roza, B. Palmer,
    A. Panyala, T. Pirojsirikul, B. Peng, R. Peverati, J. Pittner, L. Pollack,
   R. M. Richard, P. Sadayappan, G. C. Schatz, W. A. Shelton, D. W. Silverstein,
   D. M. A. Smith, T. A. Soares, D. Song, M. Swart, H. L. Taylor, G. S. Thomas,
            V. Tipparaju, D. G. Truhlar, K. Tsemekhman, T. Van Voorhis,
      A. Vazquez-Mayagoitia, P. Verma, O. Villa, A. Vishnu, K. D. Vogiatzis,
        D. Wang, J. H. Weare, M. J. Williamson, T. L. Windus, K. Wolinski,
        A. T. Wong, Q. Wu, C. Yang, Q. Yu, M. Zacharias, Z. Zhang, Y. Zhao,
                                and R. J. Harrison
                        "NWChem: Past, present, and future
                         J. Chem. Phys. 152, 184102 (2020)
                               doi:10.1063/5.0004997

                                      AUTHORS
                                      -------
  E. Apra, E. J. Bylaska, N. Govind, K. Kowalski, M. Valiev, D. Mejia-Rodriguez,
       A. Kunitsa, N. P. Bauman, A. Panyala, W. A. de Jong, T. P. Straatsma,
   H. J. J. van Dam, D. Wang, T. L. Windus, J. Hammond, J. Autschbach, A. Woods,
    K. Bhaskaran-Nair, J. Brabec, K. Lopata, S. A. Fischer, S. Krishnamoorthy,
     M. Jacquelin, W. Ma, M. Klemm, O. Villa, Y. Chen, V. Anisimov, F. Aquino,
     S. Hirata, M. T. Hackler, E. Hermes, L. Jensen, J. E. Moore, J. C. Becca,
      V. Konjkov, T. Risthaus, M. Malagoli, A. Marenich, A. Otero-de-la-Roza,
        J. Mullin, P. Nichols, R. Peverati, J. Pittner, Y. Zhao, P.-D. Fan,
        A. Fonari, M. J. Williamson, R. J. Harrison, J. R. Rehr, M. Dupuis,
     D. Silverstein, D. M. A. Smith, J. Nieplocha, V. Tipparaju, M. Krishnan,
     B. E. Van Kuiken, A. Vazquez-Mayagoitia, M. Swart, Q. Wu, T. Van Voorhis,
     A. A. Auer, M. Nooijen, L. D. Crosby, E. Brown, G. Cisneros, G. I. Fann,
   H. Fruchtl, J. Garza, K. Hirao, R. A. Kendall, J. A. Nichols, K. Tsemekhman,
    K. Wolinski, J. Anchell, D. E. Bernholdt, P. Borowski, T. Clark, D. Clerc,
   H. Dachsel, M. J. O. Deegan, K. Dyall, D. Elwood, E. Glendening, M. Gutowski,
   A. C. Hess, J. Jaffe, B. G. Johnson, J. Ju, R. Kobayashi, R. Kutteh, Z. Lin,
   R. Littlefield, X. Long, B. Meng, T. Nakajima, S. Niu, L. Pollack, M. Rosing,
   K. Glaesemann, G. Sandrone, M. Stave, H. Taylor, G. Thomas, J. H. van Lenthe,
                               A. T. Wong, Z. Zhang.

 Total times  cpu:      361.6s     wall:      371.1s
