 argument  1 = 0e/mol.nwi
                                         
                                         


             Northwest Computational Chemistry Package (NWChem) 7.2.2
             --------------------------------------------------------


                    Environmental Molecular Sciences Laboratory
                       Pacific Northwest National Laboratory
                                Richland, WA 99352

                              Copyright (c) 1994-2022
                       Pacific Northwest National Laboratory
                            Battelle Memorial Institute

             NWChem is an open-source computational chemistry package
                        distributed under the terms of the
                      Educational Community License (ECL) 2.0
             A copy of the license is included with this distribution
                              in the LICENSE.TXT file

                                  ACKNOWLEDGMENT
                                  --------------

            This software and its documentation were developed at the
            EMSL at Pacific Northwest National Laboratory, a multiprogram
            national laboratory, operated for the U.S. Department of Energy
            by Battelle under Contract Number DE-AC05-76RL01830. Support
            for this work was provided by the Department of Energy Office
            of Biological and Environmental Research, Office of Basic
            Energy Sciences, and the Office of Advanced Scientific Computing.


           Job information
           ---------------

    hostname        = r377.ib.bridges2.psc.edu
    program         = nwchem
    date            = Tue Oct  1 15:18:37 2024

    compiled        = Mon_Mar_18_17:03:37_2024
    source          = /ocean/projects/pscstaff/mmadrid/nwchem-7.2.2
    nwchem branch   = 7.2.2
    nwchem revision = 74936fb9
    ga revision     = 5.8.0
    use scalapack   = F
    input           = 0e/mol.nwi
    prefix          = dft.
    data base       = .//dft.db
    status          = startup
    nproc           =       15
    time left       =     -1s



           Memory information
           ------------------

    heap     =   67108858 doubles =    512.0 Mbytes
    stack    =   67108863 doubles =    512.0 Mbytes
    global   =  134217728 doubles =   1024.0 Mbytes (distinct from heap & stack)
    total    =  268435449 doubles =   2048.0 Mbytes
    verify   = yes
    hardfail = no 


           Directory information
           ---------------------

  0 permanent = ./
  0 scratch   = /jet/home/hmt47/nwchem_scratch/




                                NWChem Input Module
                                -------------------


  library name resolved from: environment
  library file name is: </opt/packages/nwchem/nwchem7.2.2/share/nwchem/libraries/>
  


 Summary of "ao basis" -> "" (cartesian)
 ------------------------------------------------------------------------------
       Tag                 Description            Shells   Functions and Types
 ---------------- ------------------------------  ------  ---------------------
 *                        aug-cc-pVTZ                 on all atoms 


  pbe96 is a nonlocal functional; adding pw91lda local functional. 

 Scaling coordinates for geometry "geometry" by  1.889725989
 (inverse scale =  0.529177249)



                             Geometry "geometry" -> ""
                             -------------------------

 Output coordinates in angstroms (scale by  1.889725989 to convert to a.u.)

  No.       Tag          Charge          X              Y              Z
 ---- ---------------- ---------- -------------- -------------- --------------
    1 S                   16.0000    -0.02859151     0.03526175    -0.13725269
    2 O                    8.0000    -0.28814956     1.39292264     0.46349913
    3 O                    8.0000    -0.82530437    -1.06558246     0.54655405
    4 O                    8.0000     1.62577545    -0.38007972     0.48848168
    5 H                    1.0000     1.36771900    -1.07726122     1.12192784

      Atomic Mass 
      ----------- 

      S                 31.972070
      O                 15.994910
      H                  1.007825


 Effective nuclear repulsion energy (a.u.)     177.9506288690

            Nuclear Dipole moment (a.u.) 
            ----------------------------
        X                 Y               Z
 ---------------- ---------------- ----------------
     9.4653105542    -1.7668740328    20.6247787497


            XYZ format geometry
            -------------------
     5
 geometry
 S                    -0.02859151     0.03526175    -0.13725269
 O                    -0.28814956     1.39292264     0.46349913
 O                    -0.82530437    -1.06558246     0.54655405
 O                     1.62577545    -0.38007972     0.48848168
 H                     1.36771900    -1.07726122     1.12192784

 ==============================================================================
                                internuclear distances
 ------------------------------------------------------------------------------
       center one      |      center two      | atomic units |  angstroms
 ------------------------------------------------------------------------------
    2 O                |   1 S                |     2.84811  |     1.50716
    3 O                |   1 S                |     2.87475  |     1.52125
    4 O                |   1 S                |     3.43337  |     1.81686
    5 H                |   4 O                |     1.84566  |     0.97668
 ------------------------------------------------------------------------------
                         number of included internuclear distances:          4
 ==============================================================================



 ==============================================================================
                                 internuclear angles
 ------------------------------------------------------------------------------
        center 1       |       center 2       |       center 3       |  degrees
 ------------------------------------------------------------------------------
    2 O                |   1 S                |   3 O                |   112.49
    2 O                |   1 S                |   4 O                |   103.03
    3 O                |   1 S                |   4 O                |    99.01
    1 S                |   4 O                |   5 H                |    98.39
 ------------------------------------------------------------------------------
                            number of included internuclear angles:          4
 ==============================================================================




                                 NWChem DFT Module
                                 -----------------


                      Basis "ao basis" -> "ao basis" (cartesian)
                      -----
  S (Sulphur)
  -----------
            Exponent  Coefficients 
       -------------- ---------------------------------------------------------
  1 S  3.74100000E+05  0.000054
  1 S  5.60500000E+04  0.000421
  1 S  1.27600000E+04  0.002207
  1 S  3.61500000E+03  0.009193
  1 S  1.18300000E+03  0.032112
  1 S  4.28800000E+02  0.094668
  1 S  1.67800000E+02  0.223630
  1 S  6.94700000E+01  0.374393
  1 S  2.98400000E+01  0.329108
  1 S  1.27200000E+01  0.084704
  1 S  5.24400000E+00  0.000441
  1 S  2.21900000E+00  0.001648
  1 S  3.49000000E-01  0.000301

  2 S  3.74100000E+05 -0.000015
  2 S  5.60500000E+04 -0.000116
  2 S  1.27600000E+04 -0.000612
  2 S  3.61500000E+03 -0.002554
  2 S  1.18300000E+03 -0.009087
  2 S  4.28800000E+02 -0.027705
  2 S  1.67800000E+02 -0.072002
  2 S  6.94700000E+01 -0.146439
  2 S  2.98400000E+01 -0.195150
  2 S  1.27200000E+01  0.008192
  2 S  5.24400000E+00  0.516601
  2 S  2.21900000E+00  0.542178
  2 S  3.49000000E-01 -0.009181

  3 S  3.74100000E+05  0.000004
  3 S  5.60500000E+04  0.000034
  3 S  1.27600000E+04  0.000178
  3 S  3.61500000E+03  0.000741
  3 S  1.18300000E+03  0.002646
  3 S  4.28800000E+02  0.008075
  3 S  1.67800000E+02  0.021228
  3 S  6.94700000E+01  0.043832
  3 S  2.98400000E+01  0.061272
  3 S  1.27200000E+01 -0.003615
  3 S  5.24400000E+00 -0.204510
  3 S  2.21900000E+00 -0.381871
  3 S  3.49000000E-01  0.714147

  4 S  7.76700000E-01  1.000000

  5 S  1.32200000E-01  1.000000

  6 S  4.97000000E-02  1.000000

  7 P  5.74400000E+02  0.002423
  7 P  1.35800000E+02  0.019280
  7 P  4.31900000E+01  0.088540
  7 P  1.58700000E+01  0.254654
  7 P  6.20800000E+00  0.433984
  7 P  2.48300000E+00  0.354953
  7 P  3.22900000E-01 -0.005030

  8 P  5.74400000E+02 -0.000620
  8 P  1.35800000E+02 -0.004939
  8 P  4.31900000E+01 -0.023265
  8 P  1.58700000E+01 -0.068520
  8 P  6.20800000E+00 -0.123896
  8 P  2.48300000E+00 -0.096950
  8 P  3.22900000E-01  0.569394

  9 P  8.68800000E-01  1.000000

 10 P  1.09800000E-01  1.000000

 11 P  3.51000000E-02  1.000000

 12 D  2.69000000E-01  1.000000

 13 D  8.19000000E-01  1.000000

 14 D  1.01000000E-01  1.000000

 15 F  5.57000000E-01  1.000000

 16 F  2.18000000E-01  1.000000

  O (Oxygen)
  ----------
            Exponent  Coefficients 
       -------------- ---------------------------------------------------------
  1 S  1.53300000E+04  0.000508
  1 S  2.29900000E+03  0.003929
  1 S  5.22400000E+02  0.020243
  1 S  1.47300000E+02  0.079181
  1 S  4.75500000E+01  0.230687
  1 S  1.67600000E+01  0.433118
  1 S  6.20700000E+00  0.350260
  1 S  6.88200000E-01 -0.008154

  2 S  1.53300000E+04 -0.000115
  2 S  2.29900000E+03 -0.000895
  2 S  5.22400000E+02 -0.004636
  2 S  1.47300000E+02 -0.018724
  2 S  4.75500000E+01 -0.058463
  2 S  1.67600000E+01 -0.136463
  2 S  6.20700000E+00 -0.175740
  2 S  6.88200000E-01  0.603418

  3 S  1.75200000E+00  1.000000

  4 S  2.38400000E-01  1.000000

  5 S  7.37600000E-02  1.000000

  6 P  3.44600000E+01  0.015928
  6 P  7.74900000E+00  0.099740
  6 P  2.28000000E+00  0.310492

  7 P  7.15600000E-01  1.000000

  8 P  2.14000000E-01  1.000000

  9 P  5.97400000E-02  1.000000

 10 D  2.31400000E+00  1.000000

 11 D  6.45000000E-01  1.000000

 12 D  2.14000000E-01  1.000000

 13 F  1.42800000E+00  1.000000

 14 F  5.00000000E-01  1.000000

  H (Hydrogen)
  ------------
            Exponent  Coefficients 
       -------------- ---------------------------------------------------------
  1 S  3.38700000E+01  0.006068
  1 S  5.09500000E+00  0.045308
  1 S  1.15900000E+00  0.202822

  2 S  3.25800000E-01  1.000000

  3 S  1.02700000E-01  1.000000

  4 S  2.52600000E-02  1.000000

  5 P  1.40700000E+00  1.000000

  6 P  3.88000000E-01  1.000000

  7 P  1.02000000E-01  1.000000

  8 D  1.05700000E+00  1.000000

  9 D  2.47000000E-01  1.000000



 Summary of "ao basis" -> "ao basis" (cartesian)
 ------------------------------------------------------------------------------
       Tag                 Description            Shells   Functions and Types
 ---------------- ------------------------------  ------  ---------------------
 S                        aug-cc-pVTZ               16       59   6s5p3d2f
 O                        aug-cc-pVTZ               14       55   5s4p3d2f
 H                        aug-cc-pVTZ                9       25   4s3p2d




 Summary of "ao basis" -> "ao basis" (cartesian)
 ------------------------------------------------------------------------------
       Tag                 Description            Shells   Functions and Types
 ---------------- ------------------------------  ------  ---------------------
 S                        aug-cc-pVTZ               16       59   6s5p3d2f
 O                        aug-cc-pVTZ               14       55   5s4p3d2f
 H                        aug-cc-pVTZ                9       25   4s3p2d


  Caching 1-el integrals 

            General Information
            -------------------
          SCF calculation type: DFT
          Wavefunction type:  spin polarized.
          No. of atoms     :     5
          No. of electrons :    41
           Alpha electrons :    21
            Beta electrons :    20
          Charge           :     0
          Spin multiplicity:     2
          Use of symmetry is: off; symmetry adaption is: off
          Maximum number of iterations: 200
          AO basis - number of functions:   249
                     number of shells:    67
          Convergence on energy requested:  1.00D-06
          Convergence on density requested:  1.00D-05
          Convergence on gradient requested:  5.00D-04

              XC Information
              --------------
          PerdewBurkeErnzerhof Exchange Functional  1.000          
            Perdew 1991 LDA Correlation Functional  1.000 local    
           PerdewBurkeErnz. Correlation Functional  1.000 non-local

             Grid Information
             ----------------
          Grid used for XC integration:  medium    
          Radial quadrature: Mura-Knowles        
          Angular quadrature: Lebedev. 
          Tag              B.-S. Rad. Rad. Pts. Rad. Cut. Ang. Pts.
          ---              ---------- --------- --------- ---------
          S                   1.00       88          13.0       590
          O                   0.60       49          13.0       434
          H                   0.35       45          13.0       434
          Grid pruning is: on 
          Number of quadrature shells:   280
          Spatial weights used:  Erf1

          Convergence Information
          -----------------------
          Convergence aids based upon iterative change in 
          total energy or number of iterations. 
          Levelshifting, if invoked, occurs when the 
          HOMO/LUMO gap drops below (HL_TOL):  1.00D-02
          DIIS, if invoked, will attempt to extrapolate 
          using up to (NFOCK): 10 stored Fock matrices.

                    Damping(40%)  Levelshifting(0.0)       DIIS
                  --------------- ------------------- ---------------
          dE  on:    start            0.00D+00            start   
          dE off:  200 iters          0.00D+00          200 iters 


      Screening Tolerance Information
      -------------------------------
          Density screening/tol_rho:  1.00D-10
          AO Gaussian exp screening on grid/accAOfunc:  14
          CD Gaussian exp screening on grid/accCDfunc:  20
          XC Gaussian exp screening on grid/accXCfunc:  20
          Schwarz screening/accCoul:  1.00D-08


 Forcing the number of linearly dependent vectors to be  0

      Superposition of Atomic Density Guess
      -------------------------------------

 Sum of atomic energies:        -622.33069351
   Time after variat. SCF:      0.5
   Time prior to 1st pass:      0.5

 Grid_pts file          = /jet/home/hmt47/nwchem_scratch//dft.gridpts.00
 Record size in doubles =  12289        No. of grid_pts per rec  =   3070
 Max. records in memory =      5        Max. recs in file   =  67550051


           Memory utilization after 1st SCF pass: 
           Heap Space remaining (MW):       33.49            33485746
          Stack Space remaining (MW):       67.11            67106740

   convergence    iter        energy       DeltaE   RMS-Dens  Diis-err    time
 ---------------- ----- ----------------- --------- --------- ---------  ------
 d=40,ls=0.0,diis     1   -624.7126168748 -8.03D+02  6.19D-03  9.18D+00     1.4
                                                     5.73D-03  8.34D+00
 d=40,ls=0.0,diis     2   -624.2815063585  4.31D-01  4.92D-03  1.63D+00     3.7
                                                     5.36D-03  1.49D+00
 d=40,ls=0.0,diis     3   -623.5041566279  7.77D-01  1.76D-03  1.38D+00     5.9
                                                     2.24D-03  1.23D+00
 d=40,ls=0.0,diis     4   -623.9521316041 -4.48D-01  7.63D-04  2.81D-01     8.1
                                                     1.27D-03  2.51D-01
 d=40,ls=0.0,diis     5   -624.0451417944 -9.30D-02  3.57D-04  1.02D-01    10.3
                                                     6.48D-04  9.01D-02
  Resetting Diis
 d=40,ls=0.0,diis     6   -624.0876988329 -4.26D-02  1.86D-04  3.59D-02    12.5
                                                     3.39D-04  3.21D-02
 d=40,ls=0.0,diis     7   -624.1044491714 -1.68D-02  5.50D-04  1.35D-02    14.7
                                                     7.04D-04  1.20D-02
 d=40,ls=0.0,diis     8   -624.0966390398  7.81D-03  2.10D-04  3.03D-02    16.9
                                                     4.11D-04  3.10D-02
 d=40,ls=0.0,diis     9   -624.1099967304 -1.34D-02  8.64D-05  5.51D-03    19.0
                                                     1.38D-04  5.75D-03
 d=40,ls=0.0,diis    10   -624.1138826913 -3.89D-03  4.59D-05  1.11D-03    21.2
                                                     6.91D-05  1.20D-03
 d=40,ls=0.0,diis    11   -624.1152015948 -1.32D-03  2.51D-05  2.52D-04    23.3
                                                     3.85D-05  2.84D-04
 d=40,ls=0.0,diis    12   -624.1157148671 -5.13D-04  7.62D-06  2.74D-05    25.5
                                                     1.48D-05  3.36D-05
 d=40,ls=0.0,diis    13   -624.1158990558 -1.84D-04  3.62D-06  3.68D-06    27.6
                                                     7.13D-06  4.82D-06
 d=40,ls=0.0,diis    14   -624.1159709959 -7.19D-05  1.58D-06  5.84D-07    29.8
                                                     3.28D-06  8.08D-07
 d=40,ls=0.0,diis    15   -624.1159995796 -2.86D-05  6.92D-07  9.78D-08    32.0
                                                     1.49D-06  1.35D-07
 d=40,ls=0.0,diis    16   -624.1160109855 -1.14D-05  3.21D-07  1.63D-08    34.2
                                                     7.17D-07  2.18D-08
 d=40,ls=0.0,diis    17   -624.1160155435 -4.56D-06  1.37D-07  2.68D-09    36.4
                                                     3.12D-07  3.45D-09
 d=40,ls=0.0,diis    18   -624.1160173662 -1.82D-06  5.58D-08  4.51D-10    38.6
                                                     1.30D-07  5.59D-10
 d=40,ls=0.0,diis    19   -624.1160180952 -7.29D-07  2.24D-08  7.56D-11    40.8
                                                     5.33D-08  9.05D-11


         Total DFT energy =     -624.116018095231
      One electron energy =    -1213.399966898488
           Coulomb energy =      462.640488218322
    Exchange-Corr. energy =      -51.307168284101
 Nuclear repulsion energy =      177.950628869036

 Numeric. integr. density =       40.999998972134

     Total iterative time =     40.3s



                    DFT Final Alpha Molecular Orbital Analysis
                    ------------------------------------------

 Vector    1  Occ=1.000000D+00  E=-8.829184D+01
              MO Center= -2.9D-02,  3.5D-02, -1.4D-01, r^2= 3.6D-03
   Bfn.  Coefficient  Atom+Function         Bfn.  Coefficient  Atom+Function  
  ----- ------------  ---------------      ----- ------------  ---------------
     1      1.002970  1 S  s                  5     -0.054442  1 S  s          

 Vector    2  Occ=1.000000D+00  E=-1.882866D+01
              MO Center=  1.6D+00, -3.8D-01,  4.9D-01, r^2= 1.5D-02
   Bfn.  Coefficient  Atom+Function         Bfn.  Coefficient  Atom+Function  
  ----- ------------  ---------------      ----- ------------  ---------------
   170      0.979733  4 O  s                172      0.062724  4 O  s          
   173     -0.045065  4 O  s          

 Vector    3  Occ=1.000000D+00  E=-1.882190D+01
              MO Center= -2.9D-01,  1.4D+00,  4.6D-01, r^2= 1.5D-02
   Bfn.  Coefficient  Atom+Function         Bfn.  Coefficient  Atom+Function  
  ----- ------------  ---------------      ----- ------------  ---------------
    60      0.977717  2 O  s                 62      0.063057  2 O  s          
    63     -0.057820  2 O  s                 17     -0.026443  1 S  py         

 Vector    4  Occ=1.000000D+00  E=-1.881868D+01
              MO Center= -8.3D-01, -1.1D+00,  5.5D-01, r^2= 1.5D-02
   Bfn.  Coefficient  Atom+Function         Bfn.  Coefficient  Atom+Function  
  ----- ------------  ---------------      ----- ------------  ---------------
   115      0.977883  3 O  s                117      0.063298  3 O  s          
   118     -0.057120  3 O  s                  6      0.029647  1 S  s          
    17      0.025062  1 S  py         

 Vector    5  Occ=1.000000D+00  E=-7.878336D+00
              MO Center= -2.8D-02,  3.5D-02, -1.4D-01, r^2= 7.7D-02
   Bfn.  Coefficient  Atom+Function         Bfn.  Coefficient  Atom+Function  
  ----- ------------  ---------------      ----- ------------  ---------------
     2      0.901801  1 S  s                  4      0.109472  1 S  s          
     3     -0.042414  1 S  s                  5      0.030306  1 S  s          

 Vector    6  Occ=1.000000D+00  E=-5.900960D+00
              MO Center= -2.9D-02,  3.5D-02, -1.4D-01, r^2= 6.9D-02
   Bfn.  Coefficient  Atom+Function         Bfn.  Coefficient  Atom+Function  
  ----- ------------  ---------------      ----- ------------  ---------------
     7      1.023220  1 S  px                10      0.190306  1 S  px         
     9      0.185810  1 S  pz                 8     -0.181525  1 S  py         
    45     -0.074673  1 S  fxzz              40     -0.073381  1 S  fxxx       
    43     -0.072387  1 S  fxyy              16      0.061632  1 S  px         
     5     -0.042820  1 S  s                118      0.038470  3 O  s          

 Vector    7  Occ=1.000000D+00  E=-5.898895D+00
              MO Center= -2.9D-02,  3.5D-02, -1.4D-01, r^2= 6.9D-02
   Bfn.  Coefficient  Atom+Function         Bfn.  Coefficient  Atom+Function  
  ----- ------------  ---------------      ----- ------------  ---------------
     8      1.076367  1 S  py                11      0.271339  1 S  py         
     7      0.193466  1 S  px                41     -0.092502  1 S  fxxy       
    46     -0.090419  1 S  fyyy              48     -0.089820  1 S  fyzz       
    63     -0.066143  2 O  s                118      0.064229  3 O  s          
    26      0.053898  1 S  dyz               10      0.047040  1 S  px         

 Vector    8  Occ=1.000000D+00  E=-5.897351D+00
              MO Center= -2.8D-02,  3.5D-02, -1.4D-01, r^2= 6.9D-02
   Bfn.  Coefficient  Atom+Function         Bfn.  Coefficient  Atom+Function  
  ----- ------------  ---------------      ----- ------------  ---------------
     9      1.039702  1 S  pz                 7     -0.200526  1 S  px         
    12      0.195656  1 S  pz                 5      0.166939  1 S  s          
   118     -0.087811  3 O  s                 63     -0.085032  2 O  s          
    42     -0.069808  1 S  fxxz              49     -0.069570  1 S  fzzz       
    47     -0.065438  1 S  fyyz              72      0.059556  2 O  py         

 Vector    9  Occ=1.000000D+00  E=-1.053383D+00
              MO Center= -1.2D-01,  5.7D-02,  3.2D-01, r^2= 1.5D+00
   Bfn.  Coefficient  Atom+Function         Bfn.  Coefficient  Atom+Function  
  ----- ------------  ---------------      ----- ------------  ---------------
     3      0.332325  1 S  s                 61      0.253702  2 O  s          
   116      0.245839  3 O  s                 63      0.199861  2 O  s          
   118      0.195814  3 O  s                171      0.154636  4 O  s          
   173      0.104845  4 O  s                 62      0.071571  2 O  s          
   117      0.069212  3 O  s                 69     -0.055808  2 O  py         

 Vector   10  Occ=1.000000D+00  E=-9.596581D-01
              MO Center=  5.3D-01,  2.1D-01,  4.5D-01, r^2= 2.1D+00
   Bfn.  Coefficient  Atom+Function         Bfn.  Coefficient  Atom+Function  
  ----- ------------  ---------------      ----- ------------  ---------------
   171     -0.325818  4 O  s                 61      0.324158  2 O  s          
    63      0.224372  2 O  s                173     -0.213235  4 O  s          
   116     -0.132421  3 O  s                 14      0.109647  1 S  py         
   118     -0.101628  3 O  s                172     -0.093914  4 O  s          
    62      0.090212  2 O  s                  8     -0.085084  1 S  py         

 Vector   11  Occ=1.000000D+00  E=-9.491962D-01
              MO Center=  2.0D-01, -4.9D-01,  4.6D-01, r^2= 2.0D+00
   Bfn.  Coefficient  Atom+Function         Bfn.  Coefficient  Atom+Function  
  ----- ------------  ---------------      ----- ------------  ---------------
   116      0.344987  3 O  s                171     -0.302392  4 O  s          
   118      0.243988  3 O  s                173     -0.200841  4 O  s          
    61     -0.162179  2 O  s                 63     -0.117763  2 O  s          
   117      0.096311  3 O  s                 14     -0.092586  1 S  py         
   172     -0.087277  4 O  s                  8      0.072227  1 S  py         

 Vector   12  Occ=1.000000D+00  E=-6.303611D-01
              MO Center=  1.4D-01, -2.0D-02,  1.6D-01, r^2= 2.3D+00
   Bfn.  Coefficient  Atom+Function         Bfn.  Coefficient  Atom+Function  
  ----- ------------  ---------------      ----- ------------  ---------------
     3      0.465570  1 S  s                  5      0.311967  1 S  s          
    61     -0.221127  2 O  s                116     -0.209333  3 O  s          
    63     -0.206263  2 O  s                118     -0.206720  3 O  s          
     6      0.125360  1 S  s                171     -0.086099  4 O  s          
   177     -0.081510  4 O  pz               180     -0.078536  4 O  pz         

 Vector   13  Occ=1.000000D+00  E=-4.978997D-01
              MO Center=  4.9D-01, -2.3D-01,  3.9D-01, r^2= 2.3D+00
   Bfn.  Coefficient  Atom+Function         Bfn.  Coefficient  Atom+Function  
  ----- ------------  ---------------      ----- ------------  ---------------
    13      0.197950  1 S  px               177     -0.155283  4 O  pz         
   176      0.151365  4 O  py               180     -0.150102  4 O  pz         
   179      0.144135  4 O  py               226     -0.134685  5 H  s          
   116      0.128566  3 O  s                  3     -0.121819  1 S  s          
     7     -0.116647  1 S  px               118      0.111845  3 O  s          

 Vector   14  Occ=1.000000D+00  E=-4.624006D-01
              MO Center= -1.8D-02, -1.3D-01,  3.3D-01, r^2= 2.5D+00
   Bfn.  Coefficient  Atom+Function         Bfn.  Coefficient  Atom+Function  
  ----- ------------  ---------------      ----- ------------  ---------------
    15     -0.159536  1 S  pz                70     -0.151387  2 O  pz         
   120     -0.151241  3 O  px                67     -0.150257  2 O  pz         
    14      0.148691  1 S  py               123     -0.147112  3 O  px         
   116      0.138357  3 O  s                175      0.125900  4 O  px         
   173      0.122505  4 O  s                178      0.122850  4 O  px         

 Vector   15  Occ=1.000000D+00  E=-4.556153D-01
              MO Center= -2.4D-01,  4.8D-01,  3.0D-01, r^2= 2.2D+00
   Bfn.  Coefficient  Atom+Function         Bfn.  Coefficient  Atom+Function  
  ----- ------------  ---------------      ----- ------------  ---------------
    66      0.219114  2 O  py                69      0.215346  2 O  py         
    61      0.171020  2 O  s                 14     -0.168705  1 S  py         
    15     -0.161649  1 S  pz               125     -0.149513  3 O  pz         
   122     -0.148563  3 O  pz                 5      0.140796  1 S  s          
    63      0.141448  2 O  s                 72      0.132923  2 O  py         

 Vector   16  Occ=1.000000D+00  E=-4.256004D-01
              MO Center=  6.2D-01, -3.4D-01,  4.2D-01, r^2= 2.4D+00
   Bfn.  Coefficient  Atom+Function         Bfn.  Coefficient  Atom+Function  
  ----- ------------  ---------------      ----- ------------  ---------------
   173      0.235494  4 O  s                171      0.166768  4 O  s          
   121      0.164769  3 O  py               124      0.163278  3 O  py         
   176      0.159020  4 O  py               179      0.150144  4 O  py         
     5     -0.147838  1 S  s                226     -0.147612  5 H  s          
   175      0.133903  4 O  px               178      0.130285  4 O  px         

 Vector   17  Occ=1.000000D+00  E=-3.490609D-01
              MO Center=  1.9D-01,  3.7D-01,  4.7D-01, r^2= 2.5D+00
   Bfn.  Coefficient  Atom+Function         Bfn.  Coefficient  Atom+Function  
  ----- ------------  ---------------      ----- ------------  ---------------
    68      0.262244  2 O  px                65      0.259611  2 O  px         
   180      0.162098  4 O  pz                71      0.160883  2 O  px         
   177      0.160144  4 O  pz               122     -0.158766  3 O  pz         
   125     -0.159349  3 O  pz                23      0.133229  1 S  dxy        
    29      0.123704  1 S  dxy              183      0.102464  4 O  pz         

 Vector   18  Occ=1.000000D+00  E=-3.313650D-01
              MO Center= -2.7D-01, -2.4D-01,  4.3D-01, r^2= 2.5D+00
   Bfn.  Coefficient  Atom+Function         Bfn.  Coefficient  Atom+Function  
  ----- ------------  ---------------      ----- ------------  ---------------
   120      0.261613  3 O  px               123      0.261743  3 O  px         
    70     -0.200611  2 O  pz                67     -0.196932  2 O  pz         
   126      0.164044  3 O  px               178      0.149438  4 O  px         
   175      0.146140  4 O  px                73     -0.139755  2 O  pz         
   125      0.110501  3 O  pz               122      0.104806  3 O  pz         

 Vector   19  Occ=1.000000D+00  E=-3.188685D-01
              MO Center=  3.2D-01, -2.4D-02,  4.1D-01, r^2= 2.8D+00
   Bfn.  Coefficient  Atom+Function         Bfn.  Coefficient  Atom+Function  
  ----- ------------  ---------------      ----- ------------  ---------------
    66      0.186320  2 O  py                69      0.180463  2 O  py         
   121      0.155531  3 O  py               124      0.155031  3 O  py         
   177      0.148769  4 O  pz               180      0.148370  4 O  pz         
   179      0.144774  4 O  py               176      0.142640  4 O  py         
    70     -0.126385  2 O  pz               178     -0.126042  4 O  px         

 Vector   20  Occ=1.000000D+00  E=-3.005069D-01
              MO Center=  1.1D-01, -6.7D-02,  4.4D-01, r^2= 2.7D+00
   Bfn.  Coefficient  Atom+Function         Bfn.  Coefficient  Atom+Function  
  ----- ------------  ---------------      ----- ------------  ---------------
    68      0.203909  2 O  px                65      0.199472  2 O  px         
   124      0.178422  3 O  py               121      0.177069  3 O  py         
   179     -0.174309  4 O  py               176     -0.173265  4 O  py         
    71      0.157099  2 O  px               125      0.133704  3 O  pz         
   122      0.129881  3 O  pz               182     -0.122715  4 O  py         

 Vector   21  Occ=1.000000D+00  E=-2.961275D-01
              MO Center=  1.5D-01, -2.8D-02,  2.5D-01, r^2= 2.7D+00
   Bfn.  Coefficient  Atom+Function         Bfn.  Coefficient  Atom+Function  
  ----- ------------  ---------------      ----- ------------  ---------------
     5      0.270803  1 S  s                 70      0.202265  2 O  pz         
    67      0.198201  2 O  pz               125      0.188142  3 O  pz         
   122      0.184462  3 O  pz                 3      0.180925  1 S  s          
   178      0.145146  4 O  px                73      0.143836  2 O  pz         
    15     -0.142116  1 S  pz               175      0.139648  4 O  px         

 Vector   22  Occ=0.000000D+00  E=-9.656668D-02
              MO Center=  1.2D-01,  1.4D-02, -4.7D-02, r^2= 2.6D+00
   Bfn.  Coefficient  Atom+Function         Bfn.  Coefficient  Atom+Function  
  ----- ------------  ---------------      ----- ------------  ---------------
     5      0.315022  1 S  s                 13      0.282792  1 S  px         
    10      0.271275  1 S  px                36     -0.217637  1 S  dxz        
    24     -0.206767  1 S  dxz               16      0.188148  1 S  px         
   173     -0.181698  4 O  s                 19      0.170927  1 S  px         
   178      0.171416  4 O  px                68     -0.155826  2 O  px         

 Vector   23  Occ=0.000000D+00  E=-2.672145D-02
              MO Center=  6.6D-01, -1.4D-01,  3.5D-01, r^2= 6.8D+00
   Bfn.  Coefficient  Atom+Function         Bfn.  Coefficient  Atom+Function  
  ----- ------------  ---------------      ----- ------------  ---------------
   228      0.747747  5 H  s                 20      0.539440  1 S  py         
     6     -0.289188  1 S  s                227      0.281979  5 H  s          
    38     -0.257695  1 S  dyz               26     -0.243224  1 S  dyz        
    17      0.240984  1 S  py                64     -0.189230  2 O  s          
    23      0.160459  1 S  dxy               11      0.152939  1 S  py         

 Vector   24  Occ=0.000000D+00  E=-2.638633D-02
              MO Center=  5.0D-01, -1.1D+00,  5.8D-01, r^2= 7.4D+00
   Bfn.  Coefficient  Atom+Function         Bfn.  Coefficient  Atom+Function  
  ----- ------------  ---------------      ----- ------------  ---------------
   228      0.807307  5 H  s                227      0.429433  5 H  s          
    20     -0.335962  1 S  py                19     -0.290900  1 S  px         
    16     -0.264221  1 S  px                38      0.253840  1 S  dyz        
    26      0.196050  1 S  dyz              118     -0.176953  3 O  s          
     6     -0.169900  1 S  s                119     -0.166593  3 O  s          

 Vector   25  Occ=0.000000D+00  E=-5.160973D-04
              MO Center=  2.6D-01, -1.2D-01, -5.9D-01, r^2= 6.3D+00
   Bfn.  Coefficient  Atom+Function         Bfn.  Coefficient  Atom+Function  
  ----- ------------  ---------------      ----- ------------  ---------------
    21      0.857743  1 S  pz                64     -0.628581  2 O  s          
   119     -0.586209  3 O  s                  6      0.561773  1 S  s          
    18      0.537389  1 S  pz                19     -0.428144  1 S  px         
     5      0.396280  1 S  s                  3      0.337520  1 S  s          
   228     -0.326187  5 H  s                130     -0.280189  3 O  py         

 Vector   26  Occ=0.000000D+00  E= 1.367300D-02
              MO Center= -5.8D-01,  1.6D-01, -9.8D-01, r^2= 9.7D+00
   Bfn.  Coefficient  Atom+Function         Bfn.  Coefficient  Atom+Function  
  ----- ------------  ---------------      ----- ------------  ---------------
     6      1.286501  1 S  s                 21     -0.955357  1 S  pz         
    19     -0.656053  1 S  px                64     -0.628680  2 O  s          
   174      0.568451  4 O  s                 17      0.512020  1 S  py         
    16     -0.497011  1 S  px                 5      0.492614  1 S  s          
   227      0.456378  5 H  s                 34     -0.442962  1 S  dxx        

 Vector   27  Occ=0.000000D+00  E= 4.160196D-02
              MO Center=  7.0D-01,  2.1D-01,  9.4D-02, r^2= 1.4D+01
   Bfn.  Coefficient  Atom+Function         Bfn.  Coefficient  Atom+Function  
  ----- ------------  ---------------      ----- ------------  ---------------
   119      2.482075  3 O  s                174     -2.003725  4 O  s          
    17      1.751805  1 S  py                64     -1.726664  2 O  s          
    19      1.274456  1 S  px                20      1.196246  1 S  py         
    38      0.966631  1 S  dyz               16      0.956412  1 S  px         
   227      0.879594  5 H  s                 35     -0.685755  1 S  dxy        

 Vector   28  Occ=0.000000D+00  E= 4.440421D-02
              MO Center= -3.2D-01,  3.1D-01,  8.6D-01, r^2= 1.1D+01
   Bfn.  Coefficient  Atom+Function         Bfn.  Coefficient  Atom+Function  
  ----- ------------  ---------------      ----- ------------  ---------------
     6      3.978799  1 S  s                 64     -3.650327  2 O  s          
   119     -1.751397  3 O  s                 21      1.072604  1 S  pz         
    16     -0.794325  1 S  px                20      0.774699  1 S  py         
    17      0.762562  1 S  py                19     -0.688904  1 S  px         
    75      0.678604  2 O  py                36     -0.492781  1 S  dxz        

 Vector   29  Occ=0.000000D+00  E= 6.209223D-02
              MO Center=  1.5D+00, -1.4D+00,  1.2D+00, r^2= 1.7D+01
   Bfn.  Coefficient  Atom+Function         Bfn.  Coefficient  Atom+Function  
  ----- ------------  ---------------      ----- ------------  ---------------
     6      9.505304  1 S  s                228     -3.064215  5 H  s          
   119     -2.293236  3 O  s                 64     -1.671562  2 O  s          
    19      1.643137  1 S  px                18      1.296781  1 S  pz         
    21      1.252746  1 S  pz               174     -1.161149  4 O  s          
   227     -0.895404  5 H  s                  5     -0.887016  1 S  s          

 Vector   30  Occ=0.000000D+00  E= 6.912288D-02
              MO Center=  2.2D-02, -6.3D-01,  1.3D-01, r^2= 1.4D+01
   Bfn.  Coefficient  Atom+Function         Bfn.  Coefficient  Atom+Function  
  ----- ------------  ---------------      ----- ------------  ---------------
   174      4.415694  4 O  s                227     -3.655052  5 H  s          
     6     -3.422039  1 S  s                119      2.765344  3 O  s          
    20      1.363976  1 S  py                21     -1.001692  1 S  pz         
   185     -0.973158  4 O  py               186      0.875730  4 O  pz         
   237      0.862558  5 H  pz                18     -0.853474  1 S  pz         

 Vector   31  Occ=0.000000D+00  E= 8.839880D-02
              MO Center=  6.5D-01,  1.7D-01,  4.3D-01, r^2= 1.5D+01
   Bfn.  Coefficient  Atom+Function         Bfn.  Coefficient  Atom+Function  
  ----- ------------  ---------------      ----- ------------  ---------------
   174      4.090083  4 O  s                  6     -3.574950  1 S  s          
   227     -2.767665  5 H  s                 16     -2.609353  1 S  px         
   184     -2.502609  4 O  px                17      1.534603  1 S  py         
    64     -1.372013  2 O  s                228      1.081205  5 H  s          
    75      1.016070  2 O  py                20      0.782444  1 S  py         

 Vector   32  Occ=0.000000D+00  E= 9.158241D-02
              MO Center= -4.3D-01, -1.7D-01,  4.4D-01, r^2= 1.3D+01
   Bfn.  Coefficient  Atom+Function         Bfn.  Coefficient  Atom+Function  
  ----- ------------  ---------------      ----- ------------  ---------------
    17      3.776307  1 S  py                64     -2.324266  2 O  s          
   119      2.220818  3 O  s                  6      1.825077  1 S  s          
   227     -1.655123  5 H  s                 75      1.527809  2 O  py         
   130      1.510270  3 O  py                16      1.397067  1 S  px         
   131     -1.084925  3 O  pz                58     -1.063105  1 S  fyzz       

 Vector   33  Occ=0.000000D+00  E= 1.000166D-01
              MO Center=  6.8D-01,  7.1D-02,  3.8D-01, r^2= 1.1D+01
   Bfn.  Coefficient  Atom+Function         Bfn.  Coefficient  Atom+Function  
  ----- ------------  ---------------      ----- ------------  ---------------
   227      1.782950  5 H  s                 18      1.668040  1 S  pz         
   174     -1.297685  4 O  s                 17      1.114307  1 S  py         
   184      1.090043  4 O  px                21      1.040721  1 S  pz         
    64     -0.999257  2 O  s                186     -0.986317  4 O  pz         
     6      0.881459  1 S  s                 38      0.844813  1 S  dyz        

 Vector   34  Occ=0.000000D+00  E= 1.043918D-01
              MO Center=  1.2D-01, -1.1D-01,  4.4D-01, r^2= 1.2D+01
   Bfn.  Coefficient  Atom+Function         Bfn.  Coefficient  Atom+Function  
  ----- ------------  ---------------      ----- ------------  ---------------
    18      1.322098  1 S  pz                64     -1.202224  2 O  s          
    16     -1.011869  1 S  px                36     -0.980484  1 S  dxz        
    75      0.966920  2 O  py               185      0.911348  4 O  py         
   131     -0.844272  3 O  pz                74      0.835053  2 O  px         
    19     -0.779076  1 S  px                 5      0.762461  1 S  s          

 Vector   35  Occ=0.000000D+00  E= 1.393349D-01
              MO Center= -2.1D-01,  5.2D-01, -2.0D-01, r^2= 1.4D+01
   Bfn.  Coefficient  Atom+Function         Bfn.  Coefficient  Atom+Function  
  ----- ------------  ---------------      ----- ------------  ---------------
     5      6.056435  1 S  s                  6     -3.113999  1 S  s          
    64     -3.112909  2 O  s                 21     -2.379676  1 S  pz         
    37      2.372016  1 S  dyy               76      2.206443  2 O  pz         
   227      2.061350  5 H  s                 17      1.751636  1 S  py         
    75      1.746271  2 O  py                34      1.550458  1 S  dxx        

 Vector   36  Occ=0.000000D+00  E= 1.446329D-01
              MO Center=  1.2D+00, -7.5D-01,  5.8D-01, r^2= 1.4D+01
   Bfn.  Coefficient  Atom+Function         Bfn.  Coefficient  Atom+Function  
  ----- ------------  ---------------      ----- ------------  ---------------
     6      7.479109  1 S  s                227     -6.066027  5 H  s          
   119     -5.645078  3 O  s                185     -2.722452  4 O  py         
     5      2.635467  1 S  s                186      2.607208  4 O  pz         
   228     -2.430788  5 H  s                 18      2.333419  1 S  pz         
    64     -2.056147  2 O  s                130     -1.850856  3 O  py         

 Vector   37  Occ=0.000000D+00  E= 1.585095D-01
              MO Center= -2.9D-02, -3.7D-01,  4.8D-01, r^2= 1.4D+01
   Bfn.  Coefficient  Atom+Function         Bfn.  Coefficient  Atom+Function  
  ----- ------------  ---------------      ----- ------------  ---------------
   174      5.089121  4 O  s                  6     -2.972756  1 S  s          
   227     -2.972493  5 H  s                184     -2.237392  4 O  px         
   129     -2.089545  3 O  px               185     -1.638776  4 O  py         
    16     -1.096435  1 S  px                74      1.064208  2 O  px         
    64      1.001704  2 O  s                 20      0.947002  1 S  py         

 Vector   38  Occ=0.000000D+00  E= 1.687218D-01
              MO Center= -8.3D-02,  3.1D-01,  2.9D-01, r^2= 1.3D+01
   Bfn.  Coefficient  Atom+Function         Bfn.  Coefficient  Atom+Function  
  ----- ------------  ---------------      ----- ------------  ---------------
    19      2.568738  1 S  px                74     -2.097782  2 O  px         
   129     -1.582341  3 O  px                20     -1.564718  1 S  py         
    16      1.509796  1 S  px                75      1.392260  2 O  py         
   184     -1.135360  4 O  px                18      1.126166  1 S  pz         
    76     -0.971948  2 O  pz               186      0.962959  4 O  pz         

 Vector   39  Occ=0.000000D+00  E= 1.730490D-01
              MO Center= -1.5D-01,  5.3D-01,  2.1D-01, r^2= 1.3D+01
   Bfn.  Coefficient  Atom+Function         Bfn.  Coefficient  Atom+Function  
  ----- ------------  ---------------      ----- ------------  ---------------
   174      2.562206  4 O  s                 75     -2.222626  2 O  py         
    20      2.064084  1 S  py                64      2.053844  2 O  s          
   227     -1.753467  5 H  s                130     -1.546669  3 O  py         
    19      1.508587  1 S  px                74     -1.390223  2 O  px         
   184     -1.196336  4 O  px                 6     -1.184328  1 S  s          

 Vector   40  Occ=0.000000D+00  E= 1.813940D-01
              MO Center=  2.6D-02,  9.1D-02,  2.6D-03, r^2= 1.2D+01
   Bfn.  Coefficient  Atom+Function         Bfn.  Coefficient  Atom+Function  
  ----- ------------  ---------------      ----- ------------  ---------------
    64      4.448115  2 O  s                174      2.636112  4 O  s          
   227     -2.240714  5 H  s                 20     -2.018500  1 S  py         
    17     -1.968648  1 S  py                39     -1.965643  1 S  dzz        
   186      1.466670  4 O  pz                21     -1.389232  1 S  pz         
   131      1.355701  3 O  pz               130      1.132291  3 O  py         

 Vector   41  Occ=0.000000D+00  E= 1.980141D-01
              MO Center=  3.4D-01, -4.7D-01,  1.1D-01, r^2= 1.1D+01
   Bfn.  Coefficient  Atom+Function         Bfn.  Coefficient  Atom+Function  
  ----- ------------  ---------------      ----- ------------  ---------------
   174      9.396687  4 O  s                119     -4.981846  3 O  s          
   227     -3.534233  5 H  s                 16     -3.249344  1 S  px         
     6     -2.712341  1 S  s                 17     -2.271769  1 S  py         
   184     -1.973751  4 O  px                19     -1.720394  1 S  px         
    36     -1.629398  1 S  dxz              130     -1.483809  3 O  py         

 Vector   42  Occ=0.000000D+00  E= 2.156463D-01
              MO Center=  4.2D-01, -5.0D-01,  4.0D-01, r^2= 1.1D+01
   Bfn.  Coefficient  Atom+Function         Bfn.  Coefficient  Atom+Function  
  ----- ------------  ---------------      ----- ------------  ---------------
   119      7.446921  3 O  s                  6     -6.235592  1 S  s          
    64      5.067507  2 O  s                 34     -1.576581  1 S  dxx        
    37     -1.513493  1 S  dyy              236      1.496728  5 H  py         
    17      1.416342  1 S  py                 5     -1.392222  1 S  s          
   174      1.357360  4 O  s                185     -1.303821  4 O  py         

 Vector   43  Occ=0.000000D+00  E= 2.241933D-01
              MO Center= -2.0D-01,  5.9D-02, -6.6D-02, r^2= 9.9D+00
   Bfn.  Coefficient  Atom+Function         Bfn.  Coefficient  Atom+Function  
  ----- ------------  ---------------      ----- ------------  ---------------
     6      5.621245  1 S  s                 64     -5.595217  2 O  s          
   119      3.690062  3 O  s                 17      3.605111  1 S  py         
    38      2.835283  1 S  dyz              129      1.612401  3 O  px         
    20      1.571909  1 S  py                16      1.373810  1 S  px         
    39     -1.361282  1 S  dzz              174     -1.345720  4 O  s          

 Vector   44  Occ=0.000000D+00  E= 2.332899D-01
              MO Center=  2.5D-01,  4.0D-01,  1.9D-01, r^2= 9.4D+00
   Bfn.  Coefficient  Atom+Function         Bfn.  Coefficient  Atom+Function  
  ----- ------------  ---------------      ----- ------------  ---------------
    64      7.201347  2 O  s                  6     -4.864104  1 S  s          
    17     -3.860510  1 S  py               174     -3.240886  4 O  s          
    16      2.644669  1 S  px               118     -2.063393  3 O  s          
    75     -1.792982  2 O  py                38     -1.695433  1 S  dyz        
    36     -1.656699  1 S  dxz               55     -1.626712  1 S  fxzz       

 Vector   45  Occ=0.000000D+00  E= 2.399986D-01
              MO Center=  3.6D-01, -4.1D-01,  4.1D-01, r^2= 9.6D+00
   Bfn.  Coefficient  Atom+Function         Bfn.  Coefficient  Atom+Function  
  ----- ------------  ---------------      ----- ------------  ---------------
     6      4.448196  1 S  s                 17     -3.752510  1 S  py         
    64      3.623957  2 O  s                119     -3.042835  3 O  s          
   174     -2.829142  4 O  s                237      1.697714  5 H  pz         
    36      1.683308  1 S  dxz                5     -1.605059  1 S  s          
    63      1.551727  2 O  s                130     -1.542715  3 O  py         

 Vector   46  Occ=0.000000D+00  E= 2.554037D-01
              MO Center=  2.2D-01,  2.3D-01,  6.0D-02, r^2= 7.7D+00
   Bfn.  Coefficient  Atom+Function         Bfn.  Coefficient  Atom+Function  
  ----- ------------  ---------------      ----- ------------  ---------------
   174      7.542245  4 O  s                  6     -4.466134  1 S  s          
    35      2.559631  1 S  dxy              184     -2.553413  4 O  px         
    16     -2.192886  1 S  px               227     -2.054275  5 H  s          
    64      1.928587  2 O  s                 38      1.901799  1 S  dyz        
    34     -1.498974  1 S  dxx               17     -1.242839  1 S  py         

 Vector   47  Occ=0.000000D+00  E= 2.590076D-01
              MO Center= -5.6D-02, -1.4D-01, -9.9D-02, r^2= 9.9D+00
   Bfn.  Coefficient  Atom+Function         Bfn.  Coefficient  Atom+Function  
  ----- ------------  ---------------      ----- ------------  ---------------
     6     14.284162  1 S  s                174     -4.531677  4 O  s          
    64     -4.109404  2 O  s                119     -3.631230  3 O  s          
    34     -3.546755  1 S  dxx               18      2.706902  1 S  pz         
   227      2.711107  5 H  s                 39     -2.526457  1 S  dzz        
     5     -2.305173  1 S  s                 21      1.845034  1 S  pz         

 Vector   48  Occ=0.000000D+00  E= 2.912994D-01
              MO Center=  7.3D-01, -9.5D-01,  8.2D-01, r^2= 1.0D+01
   Bfn.  Coefficient  Atom+Function         Bfn.  Coefficient  Atom+Function  
  ----- ------------  ---------------      ----- ------------  ---------------
   174     12.613189  4 O  s                227    -10.283467  5 H  s          
   119      5.536414  3 O  s                  6     -4.161498  1 S  s          
   236     -3.117051  5 H  py                17      2.620747  1 S  py         
   173      2.548267  4 O  s                184     -2.508665  4 O  px         
   237      1.966818  5 H  pz                 5     -1.920012  1 S  s          

 Vector   49  Occ=0.000000D+00  E= 3.019503D-01
              MO Center=  6.2D-01,  3.1D-01,  2.0D-01, r^2= 1.0D+01
   Bfn.  Coefficient  Atom+Function         Bfn.  Coefficient  Atom+Function  
  ----- ------------  ---------------      ----- ------------  ---------------
    64      4.680065  2 O  s                  6      4.632966  1 S  s          
     5     -3.327737  1 S  s                 37     -3.169421  1 S  dyy        
   174     -3.149648  4 O  s                118      2.992858  3 O  s          
    35     -2.853680  1 S  dxy               17     -2.700023  1 S  py         
   173      2.497518  4 O  s                 34     -2.332236  1 S  dxx        

 Vector   50  Occ=0.000000D+00  E= 3.146896D-01
              MO Center=  6.8D-01, -8.1D-01,  1.4D-01, r^2= 9.5D+00
   Bfn.  Coefficient  Atom+Function         Bfn.  Coefficient  Atom+Function  
  ----- ------------  ---------------      ----- ------------  ---------------
     6     12.442609  1 S  s                119     -6.639785  3 O  s          
   174     -5.023828  4 O  s                227      4.239188  5 H  s          
    37     -3.561696  1 S  dyy                5     -2.905675  1 S  s          
   237     -2.863823  5 H  pz               235     -2.797377  5 H  px         
    35      2.770807  1 S  dxy               63      2.314782  2 O  s          

 Vector   51  Occ=0.000000D+00  E= 3.301920D-01
              MO Center=  6.2D-01, -6.0D-01,  8.2D-01, r^2= 9.8D+00
   Bfn.  Coefficient  Atom+Function         Bfn.  Coefficient  Atom+Function  
  ----- ------------  ---------------      ----- ------------  ---------------
   119      6.380307  3 O  s                227      4.074145  5 H  s          
    17      3.928529  1 S  py               235      3.552174  5 H  px         
    64     -3.412477  2 O  s                174     -3.198057  4 O  s          
    18      2.881164  1 S  pz               185      2.471257  4 O  py         
    37     -2.381872  1 S  dyy              173     -2.358956  4 O  s          

 Vector   52  Occ=0.000000D+00  E= 3.625325D-01
              MO Center= -6.2D-01, -2.6D-01,  8.5D-01, r^2= 9.5D+00
   Bfn.  Coefficient  Atom+Function         Bfn.  Coefficient  Atom+Function  
  ----- ------------  ---------------      ----- ------------  ---------------
   119     12.160974  3 O  s                 18     -9.678659  1 S  pz         
     5     -9.565354  1 S  s                 64      9.446094  2 O  s          
    16      6.454216  1 S  px                37     -5.784384  1 S  dyy        
     6     -5.437609  1 S  s                 34     -3.761722  1 S  dxx        
    39     -3.563474  1 S  dzz              227     -3.331658  5 H  s          

 Vector   53  Occ=0.000000D+00  E= 3.908670D-01
              MO Center=  3.1D-01,  3.1D-01,  3.7D-01, r^2= 9.3D+00
   Bfn.  Coefficient  Atom+Function         Bfn.  Coefficient  Atom+Function  
  ----- ------------  ---------------      ----- ------------  ---------------
    17     10.450061  1 S  py                16      9.318072  1 S  px         
    64     -9.025420  2 O  s                174     -5.503845  4 O  s          
     6      4.983466  1 S  s                 18      4.722375  1 S  pz         
     5      4.295688  1 S  s                 35     -4.124649  1 S  dxy        
    36      3.344645  1 S  dxz              119      3.316473  3 O  s          

 Vector   54  Occ=0.000000D+00  E= 4.121101D-01
              MO Center=  9.9D-01, -4.6D-01,  2.9D-01, r^2= 8.4D+00
   Bfn.  Coefficient  Atom+Function         Bfn.  Coefficient  Atom+Function  
  ----- ------------  ---------------      ----- ------------  ---------------
   227     16.853857  5 H  s                174     -8.331885  4 O  s          
     6     -5.016502  1 S  s                226     -3.514011  5 H  s          
    38     -3.295867  1 S  dyz               18     -2.941298  1 S  pz         
    17     -2.688848  1 S  py               185      2.652894  4 O  py         
    64      2.458030  2 O  s                236      2.242683  5 H  py         

 Vector   55  Occ=0.000000D+00  E= 4.159962D-01
              MO Center=  4.4D-01,  1.4D-01,  1.1D-01, r^2= 8.3D+00
   Bfn.  Coefficient  Atom+Function         Bfn.  Coefficient  Atom+Function  
  ----- ------------  ---------------      ----- ------------  ---------------
   174     13.148737  4 O  s                 16    -11.698844  1 S  px         
    17      7.542923  1 S  py                 6     -6.765980  1 S  s          
   227     -4.432085  5 H  s                 18     -3.963481  1 S  pz         
    34     -3.890671  1 S  dxx               36     -3.133770  1 S  dxz        
    53      2.736780  1 S  fxyy             184     -2.692794  4 O  px         

 Vector   56  Occ=0.000000D+00  E= 4.207024D-01
              MO Center=  2.5D-01, -9.9D-02,  1.5D-01, r^2= 8.4D+00
   Bfn.  Coefficient  Atom+Function         Bfn.  Coefficient  Atom+Function  
  ----- ------------  ---------------      ----- ------------  ---------------
   227     17.651435  5 H  s                 17     13.748218  1 S  py         
    38      7.844332  1 S  dyz               18     -7.496159  1 S  pz         
   174     -7.493690  4 O  s                119      6.817772  3 O  s          
     6     -3.825880  1 S  s                 36     -3.450724  1 S  dxz        
   236      3.347340  5 H  py                63     -3.171457  2 O  s          

 Vector   57  Occ=0.000000D+00  E= 4.268543D-01
              MO Center=  1.1D-01, -3.8D-02, -2.0D-01, r^2= 7.1D+00
   Bfn.  Coefficient  Atom+Function         Bfn.  Coefficient  Atom+Function  
  ----- ------------  ---------------      ----- ------------  ---------------
    17      5.885266  1 S  py                38      4.048553  1 S  dyz        
    35      3.302055  1 S  dxy               36      3.310652  1 S  dxz        
   227      3.086418  5 H  s                 55      2.460545  1 S  fxzz       
    64     -2.397213  2 O  s                 71     -2.039767  2 O  px         
   118      1.941165  3 O  s                 90      1.663723  2 O  dxy        

 Vector   58  Occ=0.000000D+00  E= 4.686286D-01
              MO Center= -1.5D-01,  1.3D-01,  1.6D-02, r^2= 6.5D+00
   Bfn.  Coefficient  Atom+Function         Bfn.  Coefficient  Atom+Function  
  ----- ------------  ---------------      ----- ------------  ---------------
     5      6.642804  1 S  s                 39     -3.358064  1 S  dzz        
    18     -2.924374  1 S  pz                 6      2.396312  1 S  s          
    63     -2.398085  2 O  s                 52      1.923663  1 S  fxxz       
   118     -1.858776  3 O  s                128      1.693795  3 O  pz         
    73      1.600362  2 O  pz               183      1.534255  4 O  pz         

 Vector   59  Occ=0.000000D+00  E= 5.095373D-01
              MO Center= -3.0D-01,  4.7D-02,  2.8D-01, r^2= 5.8D+00
   Bfn.  Coefficient  Atom+Function         Bfn.  Coefficient  Atom+Function  
  ----- ------------  ---------------      ----- ------------  ---------------
     5      3.976200  1 S  s                 16      2.738542  1 S  px         
   119      2.632048  3 O  s                118     -2.511960  3 O  s          
    63     -2.474165  2 O  s                227     -2.413158  5 H  s          
    34     -2.291933  1 S  dxx               57      2.290225  1 S  fyyz       
    53     -2.251999  1 S  fxyy              50     -2.113776  1 S  fxxx       

 Vector   60  Occ=0.000000D+00  E= 5.184596D-01
              MO Center=  4.7D-01, -1.2D-01,  1.7D-01, r^2= 6.2D+00
   Bfn.  Coefficient  Atom+Function         Bfn.  Coefficient  Atom+Function  
  ----- ------------  ---------------      ----- ------------  ---------------
   227      4.367353  5 H  s                 17      3.480843  1 S  py         
    16     -3.358515  1 S  px                38      3.351107  1 S  dyz        
    18     -2.153856  1 S  pz                 6     -2.132022  1 S  s          
    63     -2.093158  2 O  s                237     -1.745567  5 H  pz         
   118      1.647400  3 O  s                 50      1.319323  1 S  fxxx       

 Vector   61  Occ=0.000000D+00  E= 5.625563D-01
              MO Center=  1.9D-01, -7.6D-01,  8.9D-01, r^2= 6.4D+00
   Bfn.  Coefficient  Atom+Function         Bfn.  Coefficient  Atom+Function  
  ----- ------------  ---------------      ----- ------------  ---------------
    17      3.275011  1 S  py               118     -2.213634  3 O  s          
   235     -2.176885  5 H  px                36     -2.140437  1 S  dxz        
    51     -2.082869  1 S  fxxy               5      2.059045  1 S  s          
    35      1.974236  1 S  dxy              119      1.825272  3 O  s          
    16     -1.790007  1 S  px                18     -1.711811  1 S  pz         

 Vector   62  Occ=0.000000D+00  E= 5.763853D-01
              MO Center=  1.1D+00, -8.7D-01,  9.8D-01, r^2= 5.1D+00
   Bfn.  Coefficient  Atom+Function         Bfn.  Coefficient  Atom+Function  
  ----- ------------  ---------------      ----- ------------  ---------------
     5      2.415588  1 S  s                  6     -2.389764  1 S  s          
   182      2.158038  4 O  py               174      2.045288  4 O  s          
   183      1.854940  4 O  pz                64      1.485408  2 O  s          
   236     -1.466483  5 H  py               202     -1.413750  4 O  dyy        
   227     -1.287229  5 H  s                173     -1.083366  4 O  s          

 Vector   63  Occ=0.000000D+00  E= 5.847404D-01
              MO Center= -1.2D-01,  1.8D-01,  6.3D-01, r^2= 5.5D+00
   Bfn.  Coefficient  Atom+Function         Bfn.  Coefficient  Atom+Function  
  ----- ------------  ---------------      ----- ------------  ---------------
    17      3.351045  1 S  py               227      1.862701  5 H  s          
    58     -1.785923  1 S  fyzz              51     -1.662226  1 S  fxxy       
    64     -1.587725  2 O  s                 56     -1.458456  1 S  fyyy       
    16     -1.366624  1 S  px                 5     -1.145679  1 S  s          
    63      1.049118  2 O  s                 35      0.947498  1 S  dxy        

 Vector   64  Occ=0.000000D+00  E= 5.979549D-01
              MO Center=  4.0D-01, -3.0D-01,  2.2D-01, r^2= 6.4D+00
   Bfn.  Coefficient  Atom+Function         Bfn.  Coefficient  Atom+Function  
  ----- ------------  ---------------      ----- ------------  ---------------
   227     -6.008835  5 H  s                226      5.577328  5 H  s          
   119     -4.069608  3 O  s                173     -3.774981  4 O  s          
   174      3.193355  4 O  s                 16     -2.504578  1 S  px         
    18      2.230885  1 S  pz               203      2.055132  4 O  dyz        
    38     -1.695735  1 S  dyz               64     -1.648828  2 O  s          

 Vector   65  Occ=0.000000D+00  E= 6.077178D-01
              MO Center=  2.0D-01,  3.6D-01,  1.4D-01, r^2= 6.4D+00
   Bfn.  Coefficient  Atom+Function         Bfn.  Coefficient  Atom+Function  
  ----- ------------  ---------------      ----- ------------  ---------------
   227     -5.779073  5 H  s                  5      5.330924  1 S  s          
    64      5.069645  2 O  s                 16      4.014213  1 S  px         
    17     -3.766234  1 S  py               174      3.435686  4 O  s          
   226      3.232326  5 H  s                119      3.101133  3 O  s          
     6     -2.543327  1 S  s                173     -2.276685  4 O  s          

 Vector   66  Occ=0.000000D+00  E= 6.147834D-01
              MO Center=  1.0D-01,  1.7D-01,  4.5D-01, r^2= 7.0D+00
   Bfn.  Coefficient  Atom+Function         Bfn.  Coefficient  Atom+Function  
  ----- ------------  ---------------      ----- ------------  ---------------
   119      3.406700  3 O  s                  6     -2.338357  1 S  s          
    64      1.453953  2 O  s                235     -1.451984  5 H  px         
   174      1.338051  4 O  s                 53     -1.279642  1 S  fxyy       
    18     -1.219644  1 S  pz               185     -1.202531  4 O  py         
   201      1.130900  4 O  dxz               16      1.125078  1 S  px         

 Vector   67  Occ=0.000000D+00  E= 6.223947D-01
              MO Center=  5.5D-01, -2.6D-02,  2.3D-01, r^2= 7.8D+00
   Bfn.  Coefficient  Atom+Function         Bfn.  Coefficient  Atom+Function  
  ----- ------------  ---------------      ----- ------------  ---------------
   174      8.048744  4 O  s                 17     -6.118245  1 S  py         
   119     -5.024227  3 O  s                 16     -3.799357  1 S  px         
    64      3.461557  2 O  s                  6     -2.918024  1 S  s          
    58      2.761385  1 S  fyzz              56      2.609535  1 S  fyyy       
    51      2.194472  1 S  fxxy               5      2.151015  1 S  s          

 Vector   68  Occ=0.000000D+00  E= 6.262905D-01
              MO Center=  1.9D-01,  5.9D-02,  3.5D-01, r^2= 7.2D+00
   Bfn.  Coefficient  Atom+Function         Bfn.  Coefficient  Atom+Function  
  ----- ------------  ---------------      ----- ------------  ---------------
   174      4.154031  4 O  s                226     -3.614067  5 H  s          
   227      3.355135  5 H  s                  6     -3.296854  1 S  s          
   173      3.178327  4 O  s                 38      1.939447  1 S  dyz        
    17      1.822481  1 S  py               203     -1.736431  4 O  dyz        
   235     -1.580684  5 H  px                18     -1.564368  1 S  pz         

 Vector   69  Occ=0.000000D+00  E= 6.295097D-01
              MO Center=  1.7D-01,  4.1D-01,  3.7D-01, r^2= 8.0D+00
   Bfn.  Coefficient  Atom+Function         Bfn.  Coefficient  Atom+Function  
  ----- ------------  ---------------      ----- ------------  ---------------
    64      2.729268  2 O  s                 17     -1.886034  1 S  py         
    37     -1.678214  1 S  dyy              174      1.659155  4 O  s          
    19     -1.552242  1 S  px                73     -1.350966  2 O  pz         
    74      1.196093  2 O  px                 5      1.175671  1 S  s          
    93     -1.124120  2 O  dyz               72      1.088058  2 O  py         

 Vector   70  Occ=0.000000D+00  E= 6.466238D-01
              MO Center= -1.6D-01, -3.8D-01,  1.5D-01, r^2= 6.4D+00
   Bfn.  Coefficient  Atom+Function         Bfn.  Coefficient  Atom+Function  
  ----- ------------  ---------------      ----- ------------  ---------------
   227      6.392875  5 H  s                226     -4.766654  5 H  s          
    64      3.444395  2 O  s                174     -3.460093  4 O  s          
   173      3.150301  4 O  s                  6     -2.600458  1 S  s          
    37      2.015786  1 S  dyy              203     -1.688564  4 O  dyz        
   127      1.647444  3 O  py                17     -1.456734  1 S  py         

 Vector   71  Occ=0.000000D+00  E= 6.552817D-01
              MO Center=  1.4D-01,  2.0D-04,  2.4D-01, r^2= 7.2D+00
   Bfn.  Coefficient  Atom+Function         Bfn.  Coefficient  Atom+Function  
  ----- ------------  ---------------      ----- ------------  ---------------
    64      5.324809  2 O  s                  5      3.318380  1 S  s          
    35      3.231262  1 S  dxy               17     -3.062606  1 S  py         
    16     -2.463157  1 S  px               174      2.289030  4 O  s          
   227     -1.850640  5 H  s                  6     -1.826201  1 S  s          
    18     -1.819105  1 S  pz               118     -1.679321  3 O  s          

 Vector   72  Occ=0.000000D+00  E= 6.764865D-01
              MO Center= -1.1D-01,  9.1D-01,  5.1D-01, r^2= 7.3D+00
   Bfn.  Coefficient  Atom+Function         Bfn.  Coefficient  Atom+Function  
  ----- ------------  ---------------      ----- ------------  ---------------
    64     11.426718  2 O  s                 17     -4.307241  1 S  py         
   174     -4.179653  4 O  s                 37     -3.589762  1 S  dyy        
     6     -3.325694  1 S  s                227      3.146925  5 H  s          
     5      2.625456  1 S  s                 92     -2.010971  2 O  dyy        
    18     -1.989378  1 S  pz                16      1.970950  1 S  px         

 Vector   73  Occ=0.000000D+00  E= 7.054202D-01
              MO Center= -1.2D-01, -1.4D-01, -3.0D-02, r^2= 6.3D+00
   Bfn.  Coefficient  Atom+Function         Bfn.  Coefficient  Atom+Function  
  ----- ------------  ---------------      ----- ------------  ---------------
   119      6.620544  3 O  s                 17     -3.683036  1 S  py         
   227     -3.033204  5 H  s                 56      2.815193  1 S  fyyy       
    58      2.736540  1 S  fyzz              35     -2.498437  1 S  dxy        
    54     -2.435283  1 S  fxyz              51      2.368928  1 S  fxxy       
    34     -2.201535  1 S  dxx               37     -1.980877  1 S  dyy        

 Vector   74  Occ=0.000000D+00  E= 7.168295D-01
              MO Center=  1.2D-01, -6.1D-01,  4.9D-01, r^2= 7.2D+00
   Bfn.  Coefficient  Atom+Function         Bfn.  Coefficient  Atom+Function  
  ----- ------------  ---------------      ----- ------------  ---------------
   119     11.464956  3 O  s                 17     10.684656  1 S  py         
     6     -4.861123  1 S  s                174      4.577556  4 O  s          
    56     -4.510213  1 S  fyyy              58     -4.284172  1 S  fyzz       
    51     -3.707718  1 S  fxxy              18     -3.431348  1 S  pz         
    34     -3.145301  1 S  dxx                5      2.832565  1 S  s          

 Vector   75  Occ=0.000000D+00  E= 7.250966D-01
              MO Center=  5.9D-01, -9.6D-02,  5.1D-01, r^2= 6.6D+00
   Bfn.  Coefficient  Atom+Function         Bfn.  Coefficient  Atom+Function  
  ----- ------------  ---------------      ----- ------------  ---------------
   227     -7.229750  5 H  s                 16      6.768475  1 S  px         
     6      3.751103  1 S  s                 36      3.478635  1 S  dxz        
   174      3.270904  4 O  s                 63      2.995823  2 O  s          
    57     -2.799428  1 S  fyyz              37     -2.660629  1 S  dyy        
   226      2.529488  5 H  s                 17     -2.285434  1 S  py         

 Vector   76  Occ=0.000000D+00  E= 7.442073D-01
              MO Center=  1.2D-01, -2.0D-01,  5.9D-01, r^2= 6.4D+00
   Bfn.  Coefficient  Atom+Function         Bfn.  Coefficient  Atom+Function  
  ----- ------------  ---------------      ----- ------------  ---------------
   227     11.695274  5 H  s                  6     10.105867  1 S  s          
   174     -9.036556  4 O  s                 17      6.467821  1 S  py         
    18     -6.236381  1 S  pz                37     -4.636974  1 S  dyy        
    39     -4.245869  1 S  dzz               34     -3.659213  1 S  dxx        
   226     -3.550402  5 H  s                 38      2.830692  1 S  dyz        

 Vector   77  Occ=0.000000D+00  E= 7.769893D-01
              MO Center=  5.4D-01, -3.5D-01,  4.2D-01, r^2= 6.2D+00
   Bfn.  Coefficient  Atom+Function         Bfn.  Coefficient  Atom+Function  
  ----- ------------  ---------------      ----- ------------  ---------------
   119      5.401572  3 O  s                174      3.509940  4 O  s          
   226      2.840801  5 H  s                  6     -2.771875  1 S  s          
   181     -2.758492  4 O  px                 5     -2.682176  1 S  s          
    16      2.048846  1 S  px               227     -1.861283  5 H  s          
   235      1.825843  5 H  px                11      1.681293  1 S  py         

 Vector   78  Occ=0.000000D+00  E= 7.871808D-01
              MO Center=  1.6D-01, -5.8D-01,  3.7D-01, r^2= 6.9D+00
   Bfn.  Coefficient  Atom+Function         Bfn.  Coefficient  Atom+Function  
  ----- ------------  ---------------      ----- ------------  ---------------
    17    -10.673009  1 S  py                 6      9.871158  1 S  s          
   119     -8.342817  3 O  s                173      7.526922  4 O  s          
     5     -5.261625  1 S  s                 57     -5.000421  1 S  fyyz       
    63      4.601198  2 O  s                 18      4.527465  1 S  pz         
    16     -4.388801  1 S  px                52     -4.238753  1 S  fxxz       

 Vector   79  Occ=0.000000D+00  E= 7.993158D-01
              MO Center=  1.3D-02,  1.1D-01,  1.1D-01, r^2= 6.4D+00
   Bfn.  Coefficient  Atom+Function         Bfn.  Coefficient  Atom+Function  
  ----- ------------  ---------------      ----- ------------  ---------------
     6     -9.577642  1 S  s                  5      9.272191  1 S  s          
    17     -6.068266  1 S  py               118     -5.844631  3 O  s          
    52      5.629488  1 S  fxxz              57      5.046769  1 S  fyyz       
   174      4.377754  4 O  s                181      4.226822  4 O  px         
    59      3.383753  1 S  fzzz              38     -3.329414  1 S  dyz        

 Vector   80  Occ=0.000000D+00  E= 8.163409D-01
              MO Center=  9.6D-01, -9.6D-01,  1.1D+00, r^2= 5.5D+00
   Bfn.  Coefficient  Atom+Function         Bfn.  Coefficient  Atom+Function  
  ----- ------------  ---------------      ----- ------------  ---------------
    18      6.002643  1 S  pz               174     -5.463338  4 O  s          
   173     -4.799894  4 O  s                227      4.641729  5 H  s          
     6      4.184713  1 S  s                 64     -3.603703  2 O  s          
    57     -3.320836  1 S  fyyz             119     -3.123817  3 O  s          
    59     -2.983241  1 S  fzzz              52     -2.726820  1 S  fxxz       

 Vector   81  Occ=0.000000D+00  E= 8.355032D-01
              MO Center=  6.6D-01, -2.1D-01,  7.6D-01, r^2= 6.0D+00
   Bfn.  Coefficient  Atom+Function         Bfn.  Coefficient  Atom+Function  
  ----- ------------  ---------------      ----- ------------  ---------------
    17      9.502209  1 S  py                18      6.962341  1 S  pz         
    64     -6.825172  2 O  s                 37      4.494807  1 S  dyy        
   227     -4.403712  5 H  s                 52     -3.980027  1 S  fxxz       
   173      3.830898  4 O  s                 57     -3.503503  1 S  fyyz       
    16     -3.316297  1 S  px                38      2.895536  1 S  dyz        

 Vector   82  Occ=0.000000D+00  E= 8.460061D-01
              MO Center=  3.4D-01, -3.2D-01,  4.9D-01, r^2= 5.8D+00
   Bfn.  Coefficient  Atom+Function         Bfn.  Coefficient  Atom+Function  
  ----- ------------  ---------------      ----- ------------  ---------------
    18      5.371650  1 S  pz                64     -4.193416  2 O  s          
    16     -3.852506  1 S  px                17      2.988171  1 S  py         
    37      2.865725  1 S  dyy              181     -2.569887  4 O  px         
     5      2.529691  1 S  s                119     -2.542326  3 O  s          
    36     -2.176470  1 S  dxz               52     -2.186409  1 S  fxxz       

 Vector   83  Occ=0.000000D+00  E= 8.868417D-01
              MO Center=  3.3D-01, -1.2D-01,  4.2D-01, r^2= 6.1D+00
   Bfn.  Coefficient  Atom+Function         Bfn.  Coefficient  Atom+Function  
  ----- ------------  ---------------      ----- ------------  ---------------
    17     13.886130  1 S  py                64     -6.499792  2 O  s          
    16      5.998203  1 S  px                51     -5.507308  1 S  fxxy       
    58     -4.665457  1 S  fyzz              56     -4.501451  1 S  fyyy       
    38      4.091598  1 S  dyz              227     -3.434018  5 H  s          
   181      3.249667  4 O  px               119      3.091128  3 O  s          

 Vector   84  Occ=0.000000D+00  E= 8.977223D-01
              MO Center= -1.1D-01, -1.4D-01,  2.6D-01, r^2= 6.0D+00
   Bfn.  Coefficient  Atom+Function         Bfn.  Coefficient  Atom+Function  
  ----- ------------  ---------------      ----- ------------  ---------------
    18      9.643048  1 S  pz                64     -8.448895  2 O  s          
   119     -8.463441  3 O  s                 59     -4.637561  1 S  fzzz       
    37      4.586305  1 S  dyy               17      4.538492  1 S  py         
     6      4.412478  1 S  s                 34      4.003628  1 S  dxx        
   174     -3.880229  4 O  s                 16     -3.829539  1 S  px         

 Vector   85  Occ=0.000000D+00  E= 8.989726D-01
              MO Center= -1.6D-02, -1.1D-02, -1.2D-01, r^2= 5.3D+00
   Bfn.  Coefficient  Atom+Function         Bfn.  Coefficient  Atom+Function  
  ----- ------------  ---------------      ----- ------------  ---------------
    17      9.768281  1 S  py                16      9.603508  1 S  px         
   119      7.343276  3 O  s                 38      6.812676  1 S  dyz        
    18     -5.517060  1 S  pz                63     -5.077298  2 O  s          
    55     -4.732699  1 S  fxzz             118      4.695514  3 O  s          
   174     -4.416938  4 O  s                227      4.279153  5 H  s          

 Vector   86  Occ=0.000000D+00  E= 9.096936D-01
              MO Center=  1.2D-01,  1.9D-01,  1.9D-01, r^2= 5.4D+00
   Bfn.  Coefficient  Atom+Function         Bfn.  Coefficient  Atom+Function  
  ----- ------------  ---------------      ----- ------------  ---------------
    17      7.035407  1 S  py               227     -5.880698  5 H  s          
   174      5.184596  4 O  s                 64     -5.009585  2 O  s          
    16     -4.875209  1 S  px                55      4.278539  1 S  fxzz       
    53      4.033579  1 S  fxyy              58     -3.721879  1 S  fyzz       
    50      3.233834  1 S  fxxx              56     -2.647581  1 S  fyyy       

 Vector   87  Occ=0.000000D+00  E= 9.321805D-01
              MO Center=  3.2D-01, -1.9D-01, -1.2D-01, r^2= 5.3D+00
   Bfn.  Coefficient  Atom+Function         Bfn.  Coefficient  Atom+Function  
  ----- ------------  ---------------      ----- ------------  ---------------
    16     12.970774  1 S  px               174     -8.702188  4 O  s          
    55     -6.893607  1 S  fxzz              18      6.278230  1 S  pz         
    53     -5.731533  1 S  fxyy              50     -5.109910  1 S  fxxx       
    17     -4.553276  1 S  py                38     -4.522296  1 S  dyz        
     6      4.252034  1 S  s                118     -3.511605  3 O  s          

 Vector   88  Occ=0.000000D+00  E= 9.445379D-01
              MO Center=  9.7D-02, -1.1D-01,  2.4D-01, r^2= 5.1D+00
   Bfn.  Coefficient  Atom+Function         Bfn.  Coefficient  Atom+Function  
  ----- ------------  ---------------      ----- ------------  ---------------
   174      5.024248  4 O  s                 51      4.271101  1 S  fxxy       
   227     -4.264380  5 H  s                  5      4.191032  1 S  s          
    57      3.238732  1 S  fyyz              16     -3.190082  1 S  px         
    64      2.808857  2 O  s                 63     -2.639022  2 O  s          
     6     -2.370578  1 S  s                 72      2.272265  2 O  py         

 Vector   89  Occ=0.000000D+00  E= 9.518557D-01
              MO Center= -5.4D-02,  1.1D-01, -1.5D-01, r^2= 5.2D+00
   Bfn.  Coefficient  Atom+Function         Bfn.  Coefficient  Atom+Function  
  ----- ------------  ---------------      ----- ------------  ---------------
    17      7.731057  1 S  py                16     -6.305681  1 S  px         
    18     -5.345626  1 S  pz               227      5.194624  5 H  s          
    36     -4.930645  1 S  dxz                6     -4.724639  1 S  s          
    58     -4.189704  1 S  fyzz              57      3.941291  1 S  fyyz       
   118     -3.576471  3 O  s                119      3.573038  3 O  s          

 Vector   90  Occ=0.000000D+00  E= 9.642424D-01
              MO Center=  1.4D-01, -1.5D-01,  3.1D-01, r^2= 5.5D+00
   Bfn.  Coefficient  Atom+Function         Bfn.  Coefficient  Atom+Function  
  ----- ------------  ---------------      ----- ------------  ---------------
   227     12.937723  5 H  s                  5     -5.936800  1 S  s          
   174     -5.522694  4 O  s                 72     -4.658201  2 O  py         
    18     -3.914146  1 S  pz                63      3.495136  2 O  s          
   226     -3.401654  5 H  s                 58     -2.918663  1 S  fyzz       
   127      2.619478  3 O  py                50      2.456033  1 S  fxxx       

 Vector   91  Occ=0.000000D+00  E= 9.875943D-01
              MO Center=  9.2D-02, -3.8D-02,  1.7D-01, r^2= 5.8D+00
   Bfn.  Coefficient  Atom+Function         Bfn.  Coefficient  Atom+Function  
  ----- ------------  ---------------      ----- ------------  ---------------
   227     11.225836  5 H  s                  5      7.770289  1 S  s          
    16      6.586176  1 S  px               174     -5.276119  4 O  s          
    57      4.897573  1 S  fyyz              63     -4.456728  2 O  s          
    36      4.289899  1 S  dxz               71     -3.365851  2 O  px         
    18     -3.091061  1 S  pz               126     -2.986484  3 O  px         

 Vector   92  Occ=0.000000D+00  E= 1.007970D+00
              MO Center=  6.3D-01, -3.9D-01,  3.6D-01, r^2= 5.7D+00
   Bfn.  Coefficient  Atom+Function         Bfn.  Coefficient  Atom+Function  
  ----- ------------  ---------------      ----- ------------  ---------------
   227     16.519233  5 H  s                174     -6.883677  4 O  s          
    17      4.381483  1 S  py                52      4.211498  1 S  fxxz       
     6     -3.173384  1 S  s                 16     -3.117518  1 S  px         
    72      3.009156  2 O  py               128     -2.634141  3 O  pz         
   127     -2.574517  3 O  py                38      2.540167  1 S  dyz        

 Vector   93  Occ=0.000000D+00  E= 1.036450D+00
              MO Center=  2.0D-01, -4.5D-01,  2.8D-01, r^2= 5.6D+00
   Bfn.  Coefficient  Atom+Function         Bfn.  Coefficient  Atom+Function  
  ----- ------------  ---------------      ----- ------------  ---------------
     5      7.316021  1 S  s                128      4.891303  3 O  pz         
   227      4.561918  5 H  s                 58      3.896423  1 S  fyzz       
[...]
    68     10.493509  2 O  px                70      9.156547  2 O  pz         
   124      6.215572  3 O  py                95     -5.299316  2 O  fxxx       
    98     -5.322325  2 O  fxyy             100     -5.299117  2 O  fxzz       
    97     -4.575630  2 O  fxxz             102     -4.568068  2 O  fyyz       
   104     -4.588070  2 O  fzzz             123     -4.172114  3 O  px         

 Vector  239  Occ=0.000000D+00  E= 1.345391D+01
              MO Center=  8.7D-02,  9.4D-01,  4.8D-01, r^2= 2.8D+00
   Bfn.  Coefficient  Atom+Function         Bfn.  Coefficient  Atom+Function  
  ----- ------------  ---------------      ----- ------------  ---------------
    70      9.795395  2 O  pz                68     -7.849813  2 O  px         
    69     -6.946036  2 O  py                11     -6.610787  1 S  py         
    17      5.731185  1 S  py               180     -5.431537  4 O  pz         
    97     -5.015027  2 O  fxxz             102     -5.031994  2 O  fyyz       
   104     -5.014885  2 O  fzzz             179     -4.854246  4 O  py         

 Vector  240  Occ=0.000000D+00  E= 1.363961D+01
              MO Center= -3.3D-01, -6.2D-01,  5.2D-01, r^2= 3.0D+00
   Bfn.  Coefficient  Atom+Function         Bfn.  Coefficient  Atom+Function  
  ----- ------------  ---------------      ----- ------------  ---------------
   123     10.192164  3 O  px               124     -8.445365  3 O  py         
   150     -5.311832  3 O  fxxx              68      5.239851  2 O  px         
   153     -5.244611  3 O  fxyy             155     -5.243727  3 O  fxzz       
    17      4.988777  1 S  py               179     -4.695355  4 O  py         
   126      4.598396  3 O  px                16     -4.312588  1 S  px         

 Vector  241  Occ=0.000000D+00  E= 1.393949D+01
              MO Center=  1.2D+00, -3.0D-01,  5.3D-01, r^2= 2.2D+00
   Bfn.  Coefficient  Atom+Function         Bfn.  Coefficient  Atom+Function  
  ----- ------------  ---------------      ----- ------------  ---------------
     5     11.430949  1 S  s                178      9.780957  4 O  px         
   171      9.105222  4 O  s                181      7.100864  4 O  px         
    10      5.801591  1 S  px               208     -5.417799  4 O  fxyy       
   210     -5.429798  4 O  fxzz             205     -5.112165  4 O  fxxx       
   170      4.843586  4 O  s                 68      4.637922  2 O  px         

 Vector  242  Occ=0.000000D+00  E= 1.463116D+01
              MO Center=  1.5D+00, -3.9D-01,  5.0D-01, r^2= 1.6D+00
   Bfn.  Coefficient  Atom+Function         Bfn.  Coefficient  Atom+Function  
  ----- ------------  ---------------      ----- ------------  ---------------
   179     11.815129  4 O  py               180    -10.957197  4 O  pz         
     5     -7.051480  1 S  s                182      6.743386  4 O  py         
   227      6.768784  5 H  s                183     -6.585949  4 O  pz         
   206     -6.031944  4 O  fxxy             211     -5.945431  4 O  fyyy       
   213     -5.856765  4 O  fyzz             178     -5.700510  4 O  px         

 Vector  243  Occ=0.000000D+00  E= 1.483942D+01
              MO Center=  1.0D+00, -2.9D-01,  5.1D-01, r^2= 3.2D+00
   Bfn.  Coefficient  Atom+Function         Bfn.  Coefficient  Atom+Function  
  ----- ------------  ---------------      ----- ------------  ---------------
     3     14.974429  1 S  s                  2     10.498747  1 S  s          
   178     10.281422  4 O  px                 5     -8.878766  1 S  s          
   171     -8.838751  4 O  s                 10     -5.755804  1 S  px         
   179      5.309800  4 O  py               205     -5.222290  4 O  fxxx       
   173      5.011360  4 O  s                208     -4.923195  4 O  fxyy       

 Vector  244  Occ=0.000000D+00  E= 1.569522D+01
              MO Center= -6.4D-01, -5.8D-01,  5.2D-01, r^2= 2.4D+00
   Bfn.  Coefficient  Atom+Function         Bfn.  Coefficient  Atom+Function  
  ----- ------------  ---------------      ----- ------------  ---------------
     5     29.398925  1 S  s                127    -12.521708  3 O  py         
   124    -10.397135  3 O  py               126     -9.983897  3 O  px         
    72      9.826383  2 O  py               123     -8.648198  3 O  px         
   118     -6.682608  3 O  s                 69      6.543466  2 O  py         
   128      5.671803  3 O  pz               116     -5.512822  3 O  s          

 Vector  245  Occ=0.000000D+00  E= 1.584637D+01
              MO Center= -3.9D-01,  9.2D-01,  4.6D-01, r^2= 2.3D+00
   Bfn.  Coefficient  Atom+Function         Bfn.  Coefficient  Atom+Function  
  ----- ------------  ---------------      ----- ------------  ---------------
    69     12.844624  2 O  py                72     12.742694  2 O  py         
    17      9.241425  1 S  py                 5      8.314293  1 S  s          
    96     -6.745153  2 O  fxxy             103     -6.748463  2 O  fyzz       
   101     -6.685657  2 O  fyyy              61     -6.598631  2 O  s          
   106     -6.193770  2 O  fxxy             113     -6.000121  2 O  fyzz       

 Vector  246  Occ=0.000000D+00  E= 1.674527D+01
              MO Center=  1.1D+00, -3.8D-01,  4.9D-01, r^2= 1.7D+00
   Bfn.  Coefficient  Atom+Function         Bfn.  Coefficient  Atom+Function  
  ----- ------------  ---------------      ----- ------------  ---------------
   173    -12.284777  4 O  s                  5     11.338599  1 S  s          
   171     -8.000966  4 O  s                193      4.864745  4 O  dxx        
   198      4.636683  4 O  dzz              196      4.600709  4 O  dyy        
     3     -4.341669  1 S  s                127     -3.488372  3 O  py         
    72      3.391140  2 O  py               190      3.284844  4 O  dyy        

 Vector  247  Occ=0.000000D+00  E= 1.683753D+01
              MO Center= -1.1D-02,  8.6D-01,  4.7D-01, r^2= 1.9D+00
   Bfn.  Coefficient  Atom+Function         Bfn.  Coefficient  Atom+Function  
  ----- ------------  ---------------      ----- ------------  ---------------
     5     17.592505  1 S  s                 63      8.800388  2 O  s          
     3     -7.628450  1 S  s                 72      7.170222  2 O  py         
     2     -5.369870  1 S  s                 92     -4.948302  2 O  dyy        
    69      4.698250  2 O  py                88     -4.459334  2 O  dzz        
    83     -4.417753  2 O  dxx               17      4.157375  1 S  py         

 Vector  248  Occ=0.000000D+00  E= 1.689321D+01
              MO Center= -4.8D-01, -6.3D-01,  4.9D-01, r^2= 1.7D+00
   Bfn.  Coefficient  Atom+Function         Bfn.  Coefficient  Atom+Function  
  ----- ------------  ---------------      ----- ------------  ---------------
   118     10.211020  3 O  s                 17     -5.474228  1 S  py         
   116      5.383419  3 O  s                141     -4.902398  3 O  dyy        
   138     -4.778237  3 O  dxx              143     -4.787831  3 O  dzz        
    63     -4.166043  2 O  s                124     -4.054877  3 O  py         
   144     -4.030436  3 O  dxx              126     -3.914341  3 O  px         

 Vector  249  Occ=0.000000D+00  E= 1.734046D+01
              MO Center=  2.6D-01,  7.5D-02,  4.5D-01, r^2= 3.8D+00
   Bfn.  Coefficient  Atom+Function         Bfn.  Coefficient  Atom+Function  
  ----- ------------  ---------------      ----- ------------  ---------------
     5     38.730152  1 S  s                  3    -31.895301  1 S  s          
     2    -22.300073  1 S  s                181     13.712389  4 O  px         
    52      8.453419  1 S  fxxz              57      8.243140  1 S  fyyz       
   118     -6.749710  3 O  s                127     -6.635326  3 O  py         
    63     -6.438071  2 O  s                173     -6.236053  4 O  s          


   alpha - beta orbital overlaps 
   ----------------------------- 


   alpha      1      2      3      4      5      6      7      8      9     10
    beta      1      2      3      4      5      6      7      8      9     10
 overlap   1.000  1.000  1.000  1.000  1.000  1.000  1.000  1.000  1.000  0.990


   alpha     11     12     13     14     15     16     17     18     19     20
    beta     11     12     13     14     15     16     17     18     19     20
 overlap   0.990  0.998  0.995  0.982  0.991  0.989  0.993  0.795  0.791  0.966


   alpha     21     22     23     24     25     26     27     28     29     30
    beta     21     22     24     23     25     26     27     28     29     30
 overlap   0.967  0.999  0.767  0.768  0.994  0.994  0.995  0.995  0.999  0.999


   alpha     31     32     33     34     35     36     37     38     39     40
    beta     31     32     33     34     35     36     37     38     39     40
 overlap   0.991  0.991  0.952  0.952  0.999  0.995  0.993  0.998  0.991  0.994


   alpha     41     42     43     44     45     46     47     48     49     50
    beta     41     42     43     44     45     46     47     48     49     50
 overlap   0.999  0.996  0.996  0.995  0.996  0.991  0.988  0.999  0.993  0.995


   alpha     51     52     53     54     55     56     57     58     59     60
    beta     51     52     53     54     55     56     57     58     59     60
 overlap   0.996  0.999  0.999  0.993  0.990  0.982  0.979  0.994  0.998  0.996


   alpha     61     62     63     64     65     66     67     68     69     70
    beta     61     62     63     64     65     66     67     68     69     70
 overlap   0.996  0.994  0.985  0.967  0.961  0.981  0.986  0.984  0.987  0.987


   alpha     71     72     73     74     75     76     77     78     79     80
    beta     71     72     73     74     75     76     77     78     79     80
 overlap   0.992  0.995  0.995  0.981  0.982  0.999  0.997  0.997  0.994  0.997


   alpha     81     82     83     84     85     86     87     88     89     90
    beta     81     82     83     84     85     86     87     88     89     90
 overlap   0.993  0.992  0.995  0.946  0.929  0.978  0.993  0.985  0.988  0.996


   alpha     91     92     93     94     95     96     97     98     99    100
    beta     91     92     93     94     95     96     97     98     99    100
 overlap   0.998  0.996  0.996  0.998  0.997  0.995  0.995  0.974  0.974  1.000


   alpha    101    102    103    104    105    106    107    108    109    110
    beta    101    102    103    104    105    106    107    108    109    110
 overlap   0.999  0.999  0.999  0.999  0.998  0.999  1.000  0.997  0.996  0.976


   alpha    111    112    113    114    115    116    117    118    119    120
    beta    111    112    113    114    115    116    117    118    119    120
 overlap   0.954  0.959  0.987  0.979  0.987  0.975  0.984  0.982  0.994  0.992


   alpha    121    122    123    124    125    126    127    128    129    130
    beta    121    122    123    124    125    126    127    128    129    130
 overlap   0.997  0.996  0.994  0.996  0.978  0.967  0.985  0.998  0.998  0.994


   alpha    131    132    133    134    135    136    137    138    139    140
    beta    131    132    133    134    135    136    137    138    139    140
 overlap   0.994  0.996  0.988  0.991  0.990  0.973  0.967  0.995  0.997  0.999


   alpha    141    142    143    144    145    146    147    148    149    150
    beta    141    142    143    144    145    146    147    148    149    150
 overlap   0.998  0.998  0.999  0.999  0.995  0.996  0.999  0.967  0.968  0.998


   alpha    151    152    153    154    155    156    157    158    159    160
    beta    151    152    153    154    155    156    157    158    159    160
 overlap   0.995  0.987  0.988  0.999  1.000  1.000  1.000  0.999  0.999  1.000


   alpha    161    162    163    164    165    166    167    168    169    170
    beta    161    162    163    164    165    166    167    168    169    170
 overlap   0.999  0.999  0.994  0.994  0.983  0.983  0.999  0.999  0.999  1.000


   alpha    171    172    173    174    175    176    177    178    179    180
    beta    171    172    173    174    175    176    177    178    179    180
 overlap   1.000  1.000  1.000  1.000  1.000  1.000  0.999  0.999  0.999  0.999


   alpha    181    182    183    184    185    186    187    188    189    190
    beta    181    182    183    184    185    186    187    188    189    190
 overlap   1.000  0.999  1.000  0.885  0.882  0.969  0.981  0.997  0.999  0.999


   alpha    191    192    193    194    195    196    197    198    199    200
    beta    191    192    193    194    195    196    197    198    199    200
 overlap   1.000  1.000  0.998  0.998  0.998  0.997  0.997  0.998  0.998  0.998


   alpha    201    202    203    204    205    206    207    208    209    210
    beta    201    202    203    204    205    206    207    208    209    210
 overlap   0.997  0.987  0.985  0.991  0.992  0.986  0.990  0.997  0.998  0.994


   alpha    211    212    213    214    215    216    217    218    219    220
    beta    211    212    213    214    215    216    217    218    219    220
 overlap   0.934  0.911  0.901  0.965  0.941  0.927  0.984  0.984  0.987  0.989


   alpha    221    222    223    224    225    226    227    228    229    230
    beta    221    222    223    224    225    226    227    228    229    230
 overlap   0.985  0.985  0.998  0.998  0.996  0.997  0.999  1.000  1.000  1.000


   alpha    231    232    233    234    235    236    237    238    239    240
    beta    231    232    233    234    235    236    237    238    239    240
 overlap   1.000  1.000  1.000  1.000  1.000  1.000  0.999  0.996  0.997  1.000


   alpha    241    242    243    244    245    246    247    248    249
    beta    241    242    243    244    245    246    247    248    249
 overlap   1.000  1.000  1.000  1.000  1.000  1.000  1.000  1.000  1.000

     --------------------------
     Expectation value of S2:  
     --------------------------
      <S2> =      0.7540 (Exact =     0.7500)


 center of mass
 --------------
 x =   0.20209830 y =  -0.01871562 z =   0.48340669

 moments of inertia (a.u.)
 ------------------
         218.946014561384          13.100511005741         -10.028940230591
          13.100511005741         228.864139849875          11.163608539340
         -10.028940230591          11.163608539340         386.362262899977

     Multipole analysis of the density
     ---------------------------------

     L   x y z        total         alpha         beta         nuclear
     -   - - -        -----         -----         ----         -------
     0   0 0 0     -0.000000    -21.000000    -20.000000     41.000000

     1   1 0 0      0.253232     -4.639637     -4.572442      9.465311
     1   0 1 0     -0.413937      0.647148      0.705790     -1.766874
     1   0 0 1     -0.246667    -10.639749    -10.231696     20.624779

     2   2 0 0    -23.521183    -65.352998    -62.236717    104.068532
     2   1 1 0     -1.460606      3.937102      3.917189     -9.314897
     2   1 0 1      1.497973     -5.070862     -5.121109     11.689944
     2   0 2 0    -23.390620    -61.587599    -58.013444     96.210423
     2   0 1 1     -1.482985      3.309670      3.297881     -8.090537
     2   0 0 2    -19.821724    -24.791107    -22.090256     27.059639


 Task  times  cpu:       40.2s     wall:       40.9s


                                NWChem Input Module
                                -------------------


 Summary of allocated global arrays
-----------------------------------
  No active global arrays


MA_summarize_allocated_blocks: starting scan ...
heap block 'gridpts', handle 115, address 0x10d0d300:
	type of elements:		double precision
	number of elements:		33554432
	address of client space:	0x10d0d380
	index for client space:		10659273
	total number of bytes:		268435592
MA_summarize_allocated_blocks: scan completed: 1 heap block, 0 stack blocks
MA usage statistics:

	allocation statistics:
					      heap	     stack
					      ----	     -----
	current number of blocks	         1	         0
	maximum number of blocks	        21	        53
	current total bytes		 268435592	         0
	maximum total bytes		 268984632	  36695064
	maximum total K-bytes		    268985	     36696
	maximum total M-bytes		       269	        37


                                     CITATION
                                     --------
                Please cite the following reference when publishing
                           results obtained with NWChem:

          E. Apra, E. J. Bylaska, W. A. de Jong, N. Govind, K. Kowalski,
       T. P. Straatsma, M. Valiev, H. J. J. van Dam, Y. Alexeev, J. Anchell,
       V. Anisimov, F. W. Aquino, R. Atta-Fynn, J. Autschbach, N. P. Bauman,
     J. C. Becca, D. E. Bernholdt, K. Bhaskaran-Nair, S. Bogatko, P. Borowski,
         J. Boschen, J. Brabec, A. Bruner, E. Cauet, Y. Chen, G. N. Chuev,
      C. J. Cramer, J. Daily, M. J. O. Deegan, T. H. Dunning Jr., M. Dupuis,
   K. G. Dyall, G. I. Fann, S. A. Fischer, A. Fonari, H. Fruchtl, L. Gagliardi,
      J. Garza, N. Gawande, S. Ghosh, K. Glaesemann, A. W. Gotz, J. Hammond,
       V. Helms, E. D. Hermes, K. Hirao, S. Hirata, M. Jacquelin, L. Jensen,
   B. G. Johnson, H. Jonsson, R. A. Kendall, M. Klemm, R. Kobayashi, V. Konkov,
      S. Krishnamoorthy, M. Krishnan, Z. Lin, R. D. Lins, R. J. Littlefield,
      A. J. Logsdail, K. Lopata, W. Ma, A. V. Marenich, J. Martin del Campo,
   D. Mejia-Rodriguez, J. E. Moore, J. M. Mullin, T. Nakajima, D. R. Nascimento,
    J. A. Nichols, P. J. Nichols, J. Nieplocha, A. Otero-de-la-Roza, B. Palmer,
    A. Panyala, T. Pirojsirikul, B. Peng, R. Peverati, J. Pittner, L. Pollack,
   R. M. Richard, P. Sadayappan, G. C. Schatz, W. A. Shelton, D. W. Silverstein,
   D. M. A. Smith, T. A. Soares, D. Song, M. Swart, H. L. Taylor, G. S. Thomas,
            V. Tipparaju, D. G. Truhlar, K. Tsemekhman, T. Van Voorhis,
      A. Vazquez-Mayagoitia, P. Verma, O. Villa, A. Vishnu, K. D. Vogiatzis,
        D. Wang, J. H. Weare, M. J. Williamson, T. L. Windus, K. Wolinski,
        A. T. Wong, Q. Wu, C. Yang, Q. Yu, M. Zacharias, Z. Zhang, Y. Zhao,
                                and R. J. Harrison
                        "NWChem: Past, present, and future
                         J. Chem. Phys. 152, 184102 (2020)
                               doi:10.1063/5.0004997

                                      AUTHORS
                                      -------
  E. Apra, E. J. Bylaska, N. Govind, K. Kowalski, M. Valiev, D. Mejia-Rodriguez,
       A. Kunitsa, N. P. Bauman, A. Panyala, W. A. de Jong, T. P. Straatsma,
   H. J. J. van Dam, D. Wang, T. L. Windus, J. Hammond, J. Autschbach, A. Woods,
    K. Bhaskaran-Nair, J. Brabec, K. Lopata, S. A. Fischer, S. Krishnamoorthy,
     M. Jacquelin, W. Ma, M. Klemm, O. Villa, Y. Chen, V. Anisimov, F. Aquino,
     S. Hirata, M. T. Hackler, E. Hermes, L. Jensen, J. E. Moore, J. C. Becca,
      V. Konjkov, T. Risthaus, M. Malagoli, A. Marenich, A. Otero-de-la-Roza,
        J. Mullin, P. Nichols, R. Peverati, J. Pittner, Y. Zhao, P.-D. Fan,
        A. Fonari, M. J. Williamson, R. J. Harrison, J. R. Rehr, M. Dupuis,
     D. Silverstein, D. M. A. Smith, J. Nieplocha, V. Tipparaju, M. Krishnan,
     B. E. Van Kuiken, A. Vazquez-Mayagoitia, M. Swart, Q. Wu, T. Van Voorhis,
     A. A. Auer, M. Nooijen, L. D. Crosby, E. Brown, G. Cisneros, G. I. Fann,
   H. Fruchtl, J. Garza, K. Hirao, R. A. Kendall, J. A. Nichols, K. Tsemekhman,
    K. Wolinski, J. Anchell, D. E. Bernholdt, P. Borowski, T. Clark, D. Clerc,
   H. Dachsel, M. J. O. Deegan, K. Dyall, D. Elwood, E. Glendening, M. Gutowski,
   A. C. Hess, J. Jaffe, B. G. Johnson, J. Ju, R. Kobayashi, R. Kutteh, Z. Lin,
   R. Littlefield, X. Long, B. Meng, T. Nakajima, S. Niu, L. Pollack, M. Rosing,
   K. Glaesemann, G. Sandrone, M. Stave, H. Taylor, G. Thomas, J. H. van Lenthe,
                               A. T. Wong, Z. Zhang.

 Total times  cpu:       40.3s     wall:       41.1s
