 vasp.5.4.4.18Apr17-6-g9f103f2a35 (build Sep 01 2024 22:12:51) complex          
  
 executed on             LinuxIFC date 2024.09.23  16:32:12
 running on   16 total cores
 distrk:  each k-point on   16 cores,    1 groups
 distr:  one band on NCORES_PER_BAND=   4 cores,    4 groups


--------------------------------------------------------------------------------------------------------


 INCAR:
 POTCAR:    PAW_PBE C 08Apr2002                   
 POTCAR:    PAW_PBE O 08Apr2002                   
 POTCAR:    PAW_PBE H 15Jun2001                   
 POTCAR:    PAW_PBE Cl 06Sep2000                  
 POTCAR:    PAW_PBE C 08Apr2002                   
   SHA256 =  253f7b50bb8d59471dbedb8285d89021f4a42ed1a2c5d38a03a736e69125dd95 C/
   COPYR  = (c) Copyright 08Apr2002 Georg Kresse                                
   COPYR  = This file is part of the software VASP. Any use, copying, and all ot
   COPYR  = If you do not have a valid VASP license, you may not use, copy or di
   VRHFIN =C: s2p2                                                              
   LEXCH  = PE                                                                  
   EATOM  =   147.1560 eV,   10.8157 Ry                                         
                                                                                
   TITEL  = PAW_PBE C 08Apr2002                                                 
   LULTRA =        F    use ultrasoft PP ?                                      
   IUNSCR =        1    unscreen: 0-lin 1-nonlin 2-no                           
   RPACOR =    1.200    partial core radius                                     
   POMASS =   12.011; ZVAL   =    4.000    mass and valenz                      
   RCORE  =    1.500    outmost cutoff radius                                   
   RWIGS  =    1.630; RWIGS  =    0.863    wigner-seitz radius (au A)           
   ENMAX  =  400.000; ENMIN  =  300.000 eV                                      
   ICORE  =        2    local potential                                         
   LCOR   =        T    correct aug charges                                     
   LPAW   =        T    paw PP                                                  
   EAUG   =  644.873                                                            
   DEXC   =    0.000                                                            
   RMAX   =    1.529    core radius for proj-oper                               
   RAUG   =    1.300    factor for augmentation sphere                          
   RDEP   =    1.501    radius for radial grids                                 
   RDEPT  =    1.300    core radius for aug-charge                              
                                                                                
   Atomic configuration                                                         
    4 entries                                                                   
     n  l   j            E        occ.                                          
     1  0  0.50      -273.3789   2.0000                                         
     2  0  0.50       -13.7508   2.0000                                         
     2  1  0.50        -5.2854   2.0000                                         
     3  2  1.50        -5.4423   0.0000                                         
   Description                                                                  
     l       E           TYP  RCUT    TYP  RCUT                                 
     0    -13.7508458     23  1.200                                             
     0     -8.2022199     23  1.200                                             
     1     -5.2854383     23  1.500                                             
     1     34.0145650     23  1.500                                             
     2     -5.4423304      7  1.500                                             
  local pseudopotential read in
  partial core-charges read in
  partial kinetic energy density read in
  atomic valenz-charges read in
  non local Contribution for L=           0  read in
    real space projection operators read in
  non local Contribution for L=           0  read in
    real space projection operators read in
  non local Contribution for L=           1  read in
    real space projection operators read in
  non local Contribution for L=           1  read in
    real space projection operators read in
    PAW grid and wavefunctions read in
 
   number of l-projection  operators is LMAX  =           4
   number of lm-projection operators is LMMAX =           8
 
 POTCAR:    PAW_PBE O 08Apr2002                   
   SHA256 =  818f92134a0a090dccd8ba1447fa70422a3b330e708bb4f08108d8ae51209ddf O/
   COPYR  = (c) Copyright 08Apr2002 Georg Kresse                                
   COPYR  = This file is part of the software VASP. Any use, copying, and all ot
   COPYR  = If you do not have a valid VASP license, you may not use, copy or di
   VRHFIN =O: s2p4                                                              
   LEXCH  = PE                                                                  
   EATOM  =   432.3788 eV,   31.7789 Ry                                         
                                                                                
   TITEL  = PAW_PBE O 08Apr2002                                                 
   LULTRA =        F    use ultrasoft PP ?                                      
   IUNSCR =        1    unscreen: 0-lin 1-nonlin 2-no                           
   RPACOR =    1.200    partial core radius                                     
   POMASS =   16.000; ZVAL   =    6.000    mass and valenz                      
   RCORE  =    1.520    outmost cutoff radius                                   
   RWIGS  =    1.550; RWIGS  =    0.820    wigner-seitz radius (au A)           
   ENMAX  =  400.000; ENMIN  =  300.000 eV                                      
   ICORE  =        2    local potential                                         
   LCOR   =        T    correct aug charges                                     
   LPAW   =        T    paw PP                                                  
   EAUG   =  605.392                                                            
   DEXC   =    0.000                                                            
   RMAX   =    1.553    core radius for proj-oper                               
   RAUG   =    1.300    factor for augmentation sphere                          
   RDEP   =    1.550    radius for radial grids                                 
   RDEPT  =    1.329    core radius for aug-charge                              
                                                                                
   Atomic configuration                                                         
    4 entries                                                                   
     n  l   j            E        occ.                                          
     1  0  0.50      -514.6923   2.0000                                         
     2  0  0.50       -23.9615   2.0000                                         
     2  1  0.50        -9.0305   4.0000                                         
     3  2  1.50        -9.5241   0.0000                                         
   Description                                                                  
     l       E           TYP  RCUT    TYP  RCUT                                 
     0    -23.9615318     23  1.200                                             
     0     -9.5240782     23  1.200                                             
     1     -9.0304911     23  1.520                                             
     1      8.1634956     23  1.520                                             
     2     -9.5240782      7  1.500                                             
  local pseudopotential read in
  partial core-charges read in
  partial kinetic energy density read in
  kinetic energy density of atom read in
  atomic valenz-charges read in
  non local Contribution for L=           0  read in
    real space projection operators read in
  non local Contribution for L=           0  read in
    real space projection operators read in
  non local Contribution for L=           1  read in
    real space projection operators read in
  non local Contribution for L=           1  read in
    real space projection operators read in
    PAW grid and wavefunctions read in
 
   number of l-projection  operators is LMAX  =           4
   number of lm-projection operators is LMMAX =           8
 
 POTCAR:    PAW_PBE H 15Jun2001                   
   SHA256 =  030f79b5d3ab3cf0e668861823c8fb652ff669f3e15e46930bd03bfd63a607b6 H/
   COPYR  = (c) Copyright 15Jun2001 Georg Kresse                                
   COPYR  = This file is part of the software VASP. Any use, copying, and all ot
   COPYR  = If you do not have a valid VASP license, you may not use, copy or di
   VRHFIN =H: ultrasoft test                                                    
   LEXCH  = PE                                                                  
   EATOM  =    12.4884 eV,    0.9179 Ry                                         
                                                                                
   TITEL  = PAW_PBE H 15Jun2001                                                 
   LULTRA =        F    use ultrasoft PP ?                                      
   IUNSCR =        0    unscreen: 0-lin 1-nonlin 2-no                           
   RPACOR =    0.000    partial core radius                                     
   POMASS =    1.000; ZVAL   =    1.000    mass and valenz                      
   RCORE  =    1.100    outmost cutoff radius                                   
   RWIGS  =    0.700; RWIGS  =    0.370    wigner-seitz radius (au A)           
   ENMAX  =  250.000; ENMIN  =  200.000 eV                                      
   RCLOC  =    0.701    cutoff for local pot                                    
   LCOR   =        T    correct aug charges                                     
   LPAW   =        T    paw PP                                                  
   EAUG   =  400.000                                                            
   RMAX   =    1.123    core radius for proj-oper                               
   RAUG   =    1.200    factor for augmentation sphere                          
   RDEP   =    1.112    radius for radial grids                                 
   RDEPT  =    0.926    core radius for aug-charge                              
                                                                                
   Atomic configuration                                                         
    2 entries                                                                   
     n  l   j            E        occ.                                          
     1  0  0.50        -6.4927   1.0000                                         
     2  1  0.50        -3.4015   0.0000                                         
   Description                                                                  
     l       E           TYP  RCUT    TYP  RCUT                                 
     0     -6.4927494     23  1.100                                             
     0      6.8029130     23  1.100                                             
     1     -4.0817478     23  1.100                                             
  local pseudopotential read in
  atomic valenz-charges read in
  non local Contribution for L=           0  read in
    real space projection operators read in
  non local Contribution for L=           0  read in
    real space projection operators read in
  non local Contribution for L=           1  read in
    real space projection operators read in
    PAW grid and wavefunctions read in
 
   number of l-projection  operators is LMAX  =           3
   number of lm-projection operators is LMMAX =           5
 
 POTCAR:    PAW_PBE Cl 06Sep2000                  
   SHA256 =  9f1b6e6ed4247ac726a768b330d26d7667cc3c95a39ff49c1d064c2d9dcce931 Cl
   COPYR  = (c) Copyright 06Sep2000 Georg Kresse                                
   COPYR  = This file is part of the software VASP. Any use, copying, and all ot
   COPYR  = If you do not have a valid VASP license, you may not use, copy or di
   VRHFIN =Cl: s2p5                                                             
   LEXCH  = PE                                                                  
   EATOM  =   409.7259 eV,   30.1140 Ry                                         
                                                                                
   TITEL  = PAW_PBE Cl 06Sep2000                                                
   LULTRA =        F    use ultrasoft PP ?                                      
   IUNSCR =        1    unscreen: 0-lin 1-nonlin 2-no                           
   RPACOR =    1.500    partial core radius                                     
   POMASS =   35.453; ZVAL   =    7.000    mass and valenz                      
   RCORE  =    1.900    outmost cutoff radius                                   
   RWIGS  =    2.100; RWIGS  =    1.111    wigner-seitz radius (au A)           
   ENMAX  =  262.472; ENMIN  =  196.854 eV                                      
   ICORE  =        2    local potential                                         
   LCOR   =        T    correct aug charges                                     
   LPAW   =        T    paw PP                                                  
   EAUG   =  356.192                                                            
   DEXC   =    0.000                                                            
   RMAX   =    1.945    core radius for proj-oper                               
   RAUG   =    1.300    factor for augmentation sphere                          
   RDEP   =    2.020    radius for radial grids                                 
   RDEPT  =    1.678    core radius for aug-charge                              
                                                                                
   Atomic configuration                                                         
    6 entries                                                                   
     n  l   j            E        occ.                                          
     1  0  0.50     -2751.1850   2.0000                                         
     2  0  0.50      -252.6861   2.0000                                         
     2  1  1.50      -191.6157   6.0000                                         
     3  0  0.50       -20.6916   2.0000                                         
     3  1  0.50        -8.5949   5.0000                                         
     3  2  1.50        -8.1635   0.0000                                         
   Description                                                                  
     l       E           TYP  RCUT    TYP  RCUT                                 
     0    -20.6915656     23  1.900                                             
     0    -22.0521482     23  1.900                                             
     1     -8.5948577     23  1.900                                             
     1     -5.3847331     23  1.900                                             
     2     -8.1634956     23  1.900                                             
  local pseudopotential read in
  partial core-charges read in
  partial kinetic energy density read in
  atomic valenz-charges read in
  non local Contribution for L=           0  read in
    real space projection operators read in
  non local Contribution for L=           0  read in
    real space projection operators read in
  non local Contribution for L=           1  read in
    real space projection operators read in
  non local Contribution for L=           1  read in
    real space projection operators read in
    PAW grid and wavefunctions read in
 
   number of l-projection  operators is LMAX  =           4
   number of lm-projection operators is LMMAX =           8
 

 ----------------------------------------------------------------------------- 
|                                                                             |
|  ADVICE TO THIS USER RUNNING 'VASP/VAMP'   (HEAR YOUR MASTER'S VOICE ...):  |
|                                                                             |
|      You have a (more or less) 'small supercell' and for smaller cells      |
|      it is recommended  to use the reciprocal-space projection scheme!      |
|      The real space optimization is not  efficient for small cells and it   |
|      is also less accurate ...                                              |
|      Therefore set LREAL=.FALSE. in the  INCAR file                         |
|                                                                             |
 ----------------------------------------------------------------------------- 

 Optimization of the real space projectors (new method)

 maximal supplied QI-value         = 25.13
 optimisation between [QCUT,QGAM] = [ 11.81, 23.88] = [ 39.08,159.64] Ry 
 Optimized for a Real-space Cutoff    1.18 Angstroem

   l    n(q)    QCUT    max X(q) W(low)/X(q) W(high)/X(q)  e(spline) 
   0      8    11.813   115.676    0.10E-03    0.13E-03    0.36E-06
   0      8    11.813    87.132    0.10E-03    0.13E-03    0.36E-06
   1      8    11.813     4.429    0.14E-03    0.13E-04    0.22E-06
   1      8    11.813     2.733    0.11E-03    0.10E-04    0.18E-06
 Optimization of the real space projectors (new method)

 maximal supplied QI-value         = 24.76
 optimisation between [QCUT,QGAM] = [ 11.88, 23.77] = [ 39.54,158.16] Ry 
 Optimized for a Real-space Cutoff    1.18 Angstroem

   l    n(q)    QCUT    max X(q) W(low)/X(q) W(high)/X(q)  e(spline) 
   0      8    11.883    20.381    0.77E-04    0.16E-03    0.31E-06
   0      8    11.883    15.268    0.85E-04    0.17E-03    0.34E-06
   1      8    11.883     5.964    0.17E-03    0.30E-04    0.33E-06
   1      8    11.883     5.382    0.15E-03    0.14E-04    0.29E-06
 Optimization of the real space projectors (new method)

 maximal supplied QI-value         = 34.20
 optimisation between [QCUT,QGAM] = [ 11.63, 23.60] = [ 37.87,155.98] Ry 
 Optimized for a Real-space Cutoff    1.18 Angstroem

   l    n(q)    QCUT    max X(q) W(low)/X(q) W(high)/X(q)  e(spline) 
   0      8    11.629    19.460    0.14E-03    0.39E-03    0.21E-06
   0      8    11.629    12.209    0.12E-03    0.36E-03    0.20E-06
   1      8    11.629     4.655    0.22E-03    0.17E-03    0.23E-06
 Optimization of the real space projectors (new method)

 maximal supplied QI-value         = 19.84
 optimisation between [QCUT,QGAM] = [ 11.91, 23.81] = [ 39.69,158.76] Ry 
 Optimized for a Real-space Cutoff    1.22 Angstroem

   l    n(q)    QCUT    max X(q) W(low)/X(q) W(high)/X(q)  e(spline) 
   0      9    11.905   168.010    0.10E-03    0.11E-03    0.59E-07
   0      9    11.905   164.674    0.98E-04    0.11E-03    0.58E-07
   1      8    11.905    69.222    0.15E-03    0.56E-04    0.91E-07
   1      8    11.905    56.786    0.15E-03    0.56E-04    0.89E-07
  PAW_PBE C 08Apr2002                   :
 energy of atom  1       EATOM= -147.1560
 kinetic energy error for atom=    0.0067 (will be added to EATOM!!)
  PAW_PBE O 08Apr2002                   :
 energy of atom  2       EATOM= -432.3788
 kinetic energy error for atom=    0.0196 (will be added to EATOM!!)
  PAW_PBE H 15Jun2001                   :
 energy of atom  3       EATOM=  -12.4884
 kinetic energy error for atom=    0.0009 (will be added to EATOM!!)
  PAW_PBE Cl 06Sep2000                  :
 energy of atom  4       EATOM= -409.7259
 kinetic energy error for atom=    0.0018 (will be added to EATOM!!)
 
 
 POSCAR:  C  O  H Cl                             
  positions in cartesian coordinates
  No initial velocities read in
 exchange correlation table for  LEXCH =        8
   RHO(1)=    0.500       N(1)  =     2000
   RHO(2)=  100.500       N(2)  =     4000

 VTST: version 3.2, (02/03/18)

 CHAIN: initializing optimizer
 
 OPT: Using VASP Dynamics algorithm
 CHAIN: Read ICHAIN            0
 
 POSCAR:  C  O  H Cl                             
  positions in cartesian coordinates
  No initial velocities read in
 


--------------------------------------------------------------------------------------------------------


 ion  position               nearest neighbor table
   1  0.333  0.502  0.327-   4 1.26   3 1.27   2 1.53
   2  0.327  0.510  0.380-   5 1.10   1 1.53   7 1.78   6 1.79
   3  0.333  0.641  0.309-   1 1.27
   4  0.335  0.363  0.309-   1 1.26
   5  0.327  0.635  0.392-   2 1.10
   6  0.117  0.523  0.399-   2 1.79
   7  0.529  0.313  0.403-   2 1.78
 

IMPORTANT INFORMATION: All symmetrisations will be switched off!
NOSYMM: (Re-)initialisation of all symmetry stuff for point group C_1.

 
 
 KPOINTS: K-Point Grid                            

Automatic generation of k-mesh.
Space group operators:
 irot       det(A)        alpha          n_x          n_y          n_z        tau_x        tau_y        tau_z
    1     1.000000     0.000000     1.000000     0.000000     0.000000     0.000000     0.000000     0.000000
 
 Subroutine IBZKPT returns following result:
 ===========================================
 
 Found      1 irreducible k-points:
 
 Following reciprocal coordinates:
            Coordinates               Weight
  0.000000  0.000000  0.000000      1.000000
 
 Following cartesian coordinates:
            Coordinates               Weight
  0.000000  0.000000  0.000000      1.000000
 


--------------------------------------------------------------------------------------------------------




 Dimension of arrays:
   k-points           NKPTS =      1   k-points in BZ     NKDIM =      1   number of bands    NBANDS=     28
   number of dos      NEDOS =    301   number of ions     NIONS =      7
   non local maximal  LDIM  =      4   non local SUM 2l+1 LMDIM =      8
   total plane-waves  NPLWV = 917504
   max r-space proj   IRMAX =   4054   max aug-charges    IRDMAX=  15358
   dimension x,y,z NGX =    64 NGY =   64 NGZ =  224
   dimension x,y,z NGXF=   128 NGYF=  128 NGZF=  448
   support grid    NGXF=   128 NGYF=  128 NGZF=  448
   ions per type =               2   2   1   2
   NGX,Y,Z   is equivalent  to a cutoff of  12.79, 12.79, 12.82 a.u.
   NGXF,Y,Z  is equivalent  to a cutoff of  25.59, 25.59, 25.64 a.u.

 SYSTEM =  DIPOLE RUNS                             
 POSCAR =   C  O  H Cl                             

 Startparameter for this run:
   NWRITE =      2    write-flag & timer
   PREC   = accura    normal or accurate (medium, high low for compatibility)
   ISTART =      0    job   : 0-new  1-cont  2-samecut
   ICHARG =      2    charge: 1-file 2-atom 10-const
   ISPIN  =      2    spin polarized calculation?
   LNONCOLLINEAR =      F non collinear calculations
   LSORBIT =      F    spin-orbit coupling
   INIWAV =      1    electr: 0-lowe 1-rand  2-diag
   LASPH  =      F    aspherical Exc in radial PAW
   METAGGA=      F    non-selfconsistent MetaGGA calc.

 Electronic Relaxation 1
   ENCUT  =  544.0 eV  39.98 Ry    6.32 a.u.  15.81 15.81 55.25*2*pi/ulx,y,z
   ENINI  =  544.0     initial cutoff
   ENAUG  =  644.9 eV  augmentation charge cutoff
   NELM   =    400;   NELMIN=  2; NELMDL= -5     # of ELM steps 
   EDIFF  = 0.1E-04   stopping-criterion for ELM
   LREAL  =      T    real-space projection
   NLSPLINE    = F    spline interpolate recip. space projectors
   LCOMPAT=      F    compatible to vasp.4.4
   GGA_COMPAT  = T    GGA compatible to vasp.4.4-vasp.4.6
   LMAXPAW     = -100 max onsite density
   LMAXMIX     =    2 max onsite mixed and CHGCAR
   VOSKOWN=      0    Vosko Wilk Nusair interpolation
   ROPT   =   -0.00025  -0.00025  -0.00025  -0.00025
 Ionic relaxation
   EDIFFG = -.1E-01   stopping-criterion for IOM
   NSW    =      0    number of steps for IOM
   NBLOCK =      1;   KBLOCK =      1    inner block; outer block 
   IBRION =     -1    ionic relax: 0-MD 1-quasi-New 2-CG
   NFREE  =      0    steps in history (QN), initial steepest desc. (CG)
   ISIF   =      2    stress and relaxation
   IWAVPR =     10    prediction:  0-non 1-charg 2-wave 3-comb
   ISYM   =      0    0-nonsym 1-usesym 2-fastsym
   LCORR  =      T    Harris-Foulkes like correction to forces

   POTIM  = 0.5000    time-step for ionic-motion
   TEIN   =    0.0    initial temperature
   TEBEG  =    0.0;   TEEND  =   0.0 temperature during run
   SMASS  =  -3.00    Nose mass-parameter (am)
   estimated Nose-frequenzy (Omega)   =  0.10E-29 period in steps =****** mass=  -0.158E-26a.u.
   SCALEE = 1.0000    scale energy and forces
   NPACO  =    256;   APACO  = 16.0  distance and # of slots for P.C.
   PSTRESS=    0.0 pullay stress

  Mass of Ions in am
   POMASS =  12.01 16.00  1.00 35.45
  Ionic Valenz
   ZVAL   =   4.00  6.00  1.00  7.00
  Atomic Wigner-Seitz radii
   RWIGS  =  -1.00 -1.00 -1.00 -1.00
  virtual crystal weights 
   VCA    =   1.00  1.00  1.00  1.00
   NELECT =      35.0000    total number of electrons
   NUPDOWN=      -1.0000    fix difference up-down

 DOS related values:
   EMIN   =  10.00;   EMAX   =-10.00  energy-range for DOS
   EFERMI =   0.00
   ISMEAR =     0;   SIGMA  =   0.00  broadening in eV -4-tet -1-fermi 0-gaus

 Electronic relaxation 2 (details)
   IALGO  =     68    algorithm
   LDIAG  =      T    sub-space diagonalisation (order eigenvalues)
   LSUBROT=      F    optimize rotation matrix (better conditioning)
   TURBO    =      0    0=normal 1=particle mesh
   IRESTART =      0    0=no restart 2=restart with 2 vectors
   NREBOOT  =      0    no. of reboots
   NMIN     =      0    reboot dimension
   EREF     =   0.00    reference energy to select bands
   IMIX   =      4    mixing-type and parameters
     AMIX     =   0.40;   BMIX     =  1.00
     AMIX_MAG =   1.60;   BMIX_MAG =  1.00
     AMIN     =   0.10
     WC   =   100.;   INIMIX=   1;  MIXPRE=   1;  MAXMIX= -45

 Intra band minimization:
   WEIMIN = 0.0000     energy-eigenvalue tresh-hold
   EBREAK =  0.89E-07  absolut break condition
   DEPER  =   0.30     relativ break condition  

   TIME   =   0.40     timestep for ELM

  volume/ion in A,a.u.               =     248.55      1677.28
  Fermi-wavevector in a.u.,A,eV,Ry     =   0.445241  0.841384  2.697217  0.198240
  Thomas-Fermi vector in A             =   1.422826
 
 Write flags
   LWAVE        =      F    write WAVECAR
   LDOWNSAMPLE  =      F    k-point downsampling of WAVECAR
   LCHARG       =      F    write CHGCAR
   LVTOT        =      F    write LOCPOT, total local potential
   LVHAR        =      F    write LOCPOT, Hartree potential only
   LELF         =      F    write electronic localiz. function (ELF)
   LORBIT       =      0    0 simple, 1 ext, 2 COOP (PROOUT), +10 PAW based schemes


 Dipole corrections
   LMONO  =      F    monopole corrections only (constant potential shift)
   LDIPOL =      T    correct potential (dipole corrections)
   IDIPOL =      3    1-x, 2-y, 3-z, 4-all directions 
   EPSILON=  1.0000000 bulk dielectric constant

 Exchange correlation treatment:
   GGA     =    PE    GGA type
   LEXCH   =     8    internal setting for exchange type
   VOSKOWN=      0    Vosko Wilk Nusair interpolation
   LHFCALC =     F    Hartree Fock is set to
   LHFONE  =     F    Hartree Fock one center treatment
   AEXX    =    0.0000 exact exchange contribution

 Linear response parameters
   LEPSILON=     F    determine dielectric tensor
   LRPA    =     F    only Hartree local field effects (RPA)
   LNABLA  =     F    use nabla operator in PAW spheres
   LVEL    =     F    velocity operator in full k-point grid
   LINTERFAST=   F  fast interpolation
   KINTER  =     0    interpolate to denser k-point grid
   CSHIFT  =0.1000    complex shift for real part using Kramers Kronig
   OMEGAMAX=  -1.0    maximum frequency
   DEG_THRESHOLD= 0.2000000E-02 threshold for treating states as degnerate
   RTIME   =   -0.100 relaxation time in fs
  (WPLASMAI=    0.000 imaginary part of plasma frequency in eV, 0.658/RTIME)
   DFIELD  = 0.0000000 0.0000000 0.0000000 field for delta impulse in time
 
 Orbital magnetization related:
   ORBITALMAG=     F  switch on orbital magnetization
   LCHIMAG   =     F  perturbation theory with respect to B field
   DQ        =  0.001000  dq finite difference perturbation B field
   LLRAUG    =     F  two centre corrections for induced B field



--------------------------------------------------------------------------------------------------------


 Static calculation
 charge density and potential will be updated during run
 spin polarized calculation
 RMM-DIIS sequential band-by-band and
  variant of blocked Davidson during initial phase
 perform sub-space diagonalisation
    before iterative eigenvector-optimisation
 modified Broyden-mixing scheme, WC =      100.0
 initial mixing is a Kerker type mixing with AMIX =  0.4000 and BMIX =      1.0000
 Hartree-type preconditioning will be used
 using additional bands           10
 real space projection scheme for non local part
 use partial core corrections
 calculate Harris-corrections to forces 
   (improved forces if not selfconsistent)
 use gradient corrections 
 use of overlap-Matrix (Vanderbilt PP)
 Gauss-broadening in eV      SIGMA  =   0.00


--------------------------------------------------------------------------------------------------------


  energy-cutoff  :      544.00
  volume of cell :     1739.83
      direct lattice vectors                 reciprocal lattice vectors
     8.315596000  0.000000000  0.000000000     0.120255962 -0.069429620  0.000000000
     4.157788000  7.201520000  0.000000000     0.000000000  0.138859574  0.000000000
     0.000000000  0.000000000 29.052834000     0.000000000  0.000000000  0.034420050

  length of vectors
     8.315596000  8.315593266 29.052834000     0.138859528  0.138859574  0.034420050


 
 k-points in units of 2pi/SCALE and weight: K-Point Grid                            
   0.00000000  0.00000000  0.00000000       1.000
 
 k-points in reciprocal lattice and weights: K-Point Grid                            
   0.00000000  0.00000000  0.00000000       1.000
 
 position of ions in fractional coordinates (direct lattice) 
   0.33259578  0.50244046  0.32740706
   0.32728456  0.51010509  0.38015840
   0.33271218  0.64057185  0.30884636
   0.33540436  0.36341147  0.30889351
   0.32736536  0.63512856  0.39222459
   0.11729396  0.52267452  0.39929809
   0.52893691  0.31258193  0.40255766
 
 position of ions in cartesian coordinates  (Angst):
   4.85477300  3.61833500  9.51210300
   4.84247500  3.67353200 11.04467900
   5.43006200  4.61309100  8.97286200
   4.30007500  2.61711500  8.97423200
   5.36296800  4.57389100 11.39523600
   3.14853900  3.76405100 11.60074100
   5.69807500  2.25106500 11.69544100
 


--------------------------------------------------------------------------------------------------------


 k-point  1 :   0.0000 0.0000 0.0000  plane waves:   50139

 maximum and minimum number of plane-waves per node :     12536    12533

 maximum number of plane-waves:     50139
 maximum index in each direction: 
   IXMAX=   15   IYMAX=   15   IZMAX=   55
   IXMIN=  -15   IYMIN=  -15   IZMIN=  -55


 real space projection operators:
  total allocation   :       1513.78 KBytes
  max/ min on nodes  :        381.75        374.04


 parallel 3D FFT for wavefunctions:
    minimum data exchange during FFTs selected (reduces bandwidth)
 parallel 3D FFT for charge:
    minimum data exchange during FFTs selected (reduces bandwidth)


 total amount of memory used by VASP MPI-rank0   118567. kBytes
=======================================================================

   base      :      30000. kBytes
   nonlr-proj:        940. kBytes
   fftplans  :      22218. kBytes
   grid      :      62586. kBytes
   one-center:         12. kBytes
   wavefun   :       2811. kBytes
 
     INWAV:  cpu time    0.0001: real time    0.0007
 Broyden mixing: mesh for mixing (old mesh)
   NGX = 31   NGY = 31   NGZ =111
  (NGX  =128   NGY  =128   NGZ  =448)
  gives a total of 106671 points

 initial charge density was supplied:
 charge density of overlapping atoms calculated
 number of electron      35.0000000 magnetization       7.0000000
 keeping initial charge density in first step


--------------------------------------------------------------------------------------------------------


 Maximum index for non-local projection operator          973
 Maximum index for augmentation-charges          931 (set IRDMAX)


--------------------------------------------------------------------------------------------------------


 First call to EWALD:  gamma=   0.147
 Maximum number of real-space cells 4x 4x 1
 Maximum number of reciprocal cells 2x 2x 6

    FEWALD:  cpu time    0.0017: real time    0.0017


--------------------------------------- Iteration      1(   1)  ---------------------------------------


    POTLOK:  cpu time    0.6893: real time    0.7022
    SETDIJ:  cpu time    0.0125: real time    0.0126
     EDDAV:  cpu time    1.1805: real time    1.1901
       DOS:  cpu time    0.0005: real time    0.0005
    --------------------------------------------
      LOOP:  cpu time    1.8828: real time    1.9054

 eigenvalue-minimisations  :   136
 total energy-change (2. order) : 0.3212001E+03  (-0.9290022E+03)
 number of electron      35.0000000 magnetization       7.0000000
 augmentation part       35.0000000 magnetization       7.0000000

 DIPCOR: dipole corrections for dipol
 direction  3 min pos   269,
 dipolmoment           0.000000      0.000000     -0.000330 electrons x Angstroem
 Tr[quadrupol]      -679.223312

 energy correction for charged system         0.000000 eV
 dipol+quadrupol energy correction           -0.000000 eV
 added-field ion interaction          0.009082 eV  (added to PSCEN)


 Free energy of the ion-electron system (eV)
  ---------------------------------------------------
  alpha Z        PSCENC =         3.03005291
  Ewald energy   TEWEN  =      3136.61422134
  -Hartree energ DENC   =     -4754.85696022
  -exchange      EXHF   =         0.00000000
  -V(xc)+E(xc)   XCENC  =       124.22389450
  PAW double counting   =      1561.77428155    -1566.71254422
  entropy T*S    EENTRO =        -0.00000000
  eigenvalues    EBANDS =      -173.82549805
  atomic energy  EATOM  =      1990.95269145
  Solvation  Ecorr_sol  =         0.00000000
  ---------------------------------------------------
  free energy    TOTEN  =       321.20013925 eV

  energy without entropy =      321.20013925  energy(sigma->0) =      321.20013925


--------------------------------------------------------------------------------------------------------




--------------------------------------- Iteration      1(   2)  ---------------------------------------


     EDDAV:  cpu time    1.4923: real time    1.5056
       DOS:  cpu time    0.0002: real time    0.0002
    --------------------------------------------
      LOOP:  cpu time    1.4924: real time    1.5058

 eigenvalue-minimisations  :   192
 total energy-change (2. order) :-0.2418162E+03  (-0.2307529E+03)
 number of electron      35.0000000 magnetization       7.0000000
 augmentation part       35.0000000 magnetization       7.0000000

 DIPCOR: dipole corrections for dipol
 direction  3 min pos   269,
 dipolmoment           0.000000      0.000000     -0.000330 electrons x Angstroem
 Tr[quadrupol]      -679.223312

 energy correction for charged system         0.000000 eV
 dipol+quadrupol energy correction           -0.000000 eV
 added-field ion interaction          0.009082 eV  (added to PSCEN)


 Free energy of the ion-electron system (eV)
  ---------------------------------------------------
  alpha Z        PSCENC =         3.03005291
  Ewald energy   TEWEN  =      3136.61422134
  -Hartree energ DENC   =     -4754.85696022
  -exchange      EXHF   =         0.00000000
  -V(xc)+E(xc)   XCENC  =       124.22389450
  PAW double counting   =      1561.77428155    -1566.71254422
  entropy T*S    EENTRO =        -0.00000000
  eigenvalues    EBANDS =      -415.64168999
  atomic energy  EATOM  =      1990.95269145
  Solvation  Ecorr_sol  =         0.00000000
  ---------------------------------------------------
  free energy    TOTEN  =        79.38394732 eV

  energy without entropy =       79.38394732  energy(sigma->0) =       79.38394732


--------------------------------------------------------------------------------------------------------




--------------------------------------- Iteration      1(   3)  ---------------------------------------


     EDDAV:  cpu time    1.0569: real time    1.0659
       DOS:  cpu time    0.0002: real time    0.0002
    --------------------------------------------
      LOOP:  cpu time    1.0572: real time    1.0663

 eigenvalue-minimisations  :   124
 total energy-change (2. order) :-0.1085297E+03  (-0.1072792E+03)
 number of electron      35.0000000 magnetization       7.0000000
 augmentation part       35.0000000 magnetization       7.0000000

 DIPCOR: dipole corrections for dipol
 direction  3 min pos   269,
 dipolmoment           0.000000      0.000000     -0.000330 electrons x Angstroem
 Tr[quadrupol]      -679.223312

 energy correction for charged system         0.000000 eV
 dipol+quadrupol energy correction           -0.000000 eV
 added-field ion interaction          0.009082 eV  (added to PSCEN)


 Free energy of the ion-electron system (eV)
  ---------------------------------------------------
  alpha Z        PSCENC =         3.03005291
  Ewald energy   TEWEN  =      3136.61422134
  -Hartree energ DENC   =     -4754.85696022
  -exchange      EXHF   =         0.00000000
  -V(xc)+E(xc)   XCENC  =       124.22389450
  PAW double counting   =      1561.77428155    -1566.71254422
  entropy T*S    EENTRO =        -0.00000000
  eigenvalues    EBANDS =      -524.17139646
  atomic energy  EATOM  =      1990.95269145
  Solvation  Ecorr_sol  =         0.00000000
  ---------------------------------------------------
  free energy    TOTEN  =       -29.14575916 eV

  energy without entropy =      -29.14575916  energy(sigma->0) =      -29.14575916


--------------------------------------------------------------------------------------------------------




--------------------------------------- Iteration      1(   4)  ---------------------------------------


     EDDAV:  cpu time    1.2893: real time    1.2999
       DOS:  cpu time    0.0002: real time    0.0002
    --------------------------------------------
      LOOP:  cpu time    1.2894: real time    1.2999

 eigenvalue-minimisations  :   160
 total energy-change (2. order) :-0.7955965E+01  (-0.7870266E+01)
 number of electron      35.0000000 magnetization       7.0000000
 augmentation part       35.0000000 magnetization       7.0000000

 DIPCOR: dipole corrections for dipol
 direction  3 min pos   269,
 dipolmoment           0.000000      0.000000     -0.000330 electrons x Angstroem
 Tr[quadrupol]      -679.223312

 energy correction for charged system         0.000000 eV
 dipol+quadrupol energy correction           -0.000000 eV
 added-field ion interaction          0.009082 eV  (added to PSCEN)


 Free energy of the ion-electron system (eV)
  ---------------------------------------------------
  alpha Z        PSCENC =         3.03005291
  Ewald energy   TEWEN  =      3136.61422134
  -Hartree energ DENC   =     -4754.85696022
  -exchange      EXHF   =         0.00000000
  -V(xc)+E(xc)   XCENC  =       124.22389450
  PAW double counting   =      1561.77428155    -1566.71254422
  entropy T*S    EENTRO =        -0.00000000
  eigenvalues    EBANDS =      -532.12736138
  atomic energy  EATOM  =      1990.95269145
  Solvation  Ecorr_sol  =         0.00000000
  ---------------------------------------------------
  free energy    TOTEN  =       -37.10172407 eV

  energy without entropy =      -37.10172407  energy(sigma->0) =      -37.10172407


--------------------------------------------------------------------------------------------------------




--------------------------------------- Iteration      1(   5)  ---------------------------------------


     EDDAV:  cpu time    1.0685: real time    1.0782
       DOS:  cpu time    0.0002: real time    0.0002
    CHARGE:  cpu time    0.1179: real time    0.1190
    MIXING:  cpu time    0.0176: real time    0.0177
    --------------------------------------------
      LOOP:  cpu time    1.2042: real time    1.2151

 eigenvalue-minimisations  :   128
 total energy-change (2. order) :-0.1104898E+00  (-0.1098632E+00)
 number of electron      35.0000000 magnetization       6.5710546
 augmentation part       -0.1795367 magnetization       5.5804312

 DIPCOR: dipole corrections for dipol
 direction  3 min pos   269,
 dipolmoment           0.000000      0.000000     -0.000330 electrons x Angstroem
 Tr[quadrupol]      -679.223312

 energy correction for charged system         0.000000 eV
 dipol+quadrupol energy correction           -0.000000 eV
 added-field ion interaction          0.009082 eV  (added to PSCEN)


 Broyden mixing:
  rms(total) = 0.21041E+01    rms(broyden)= 0.21038E+01
  rms(prec ) = 0.21385E+01
  weight for this iteration     100.00

 Free energy of the ion-electron system (eV)
  ---------------------------------------------------
  alpha Z        PSCENC =         3.03005291
  Ewald energy   TEWEN  =      3136.61422134
  -Hartree energ DENC   =     -4754.85696022
  -exchange      EXHF   =         0.00000000
  -V(xc)+E(xc)   XCENC  =       124.22389450
  PAW double counting   =      1561.77428155    -1566.71254422
  entropy T*S    EENTRO =         0.00000000
  eigenvalues    EBANDS =      -532.23785120
  atomic energy  EATOM  =      1990.95269145
  Solvation  Ecorr_sol  =         0.00000000
  ---------------------------------------------------
  free energy    TOTEN  =       -37.21221389 eV

  energy without entropy =      -37.21221389  energy(sigma->0) =      -37.21221389


--------------------------------------------------------------------------------------------------------




--------------------------------------- Iteration      1(   6)  ---------------------------------------


    POTLOK:  cpu time    0.7328: real time    0.7402
    SETDIJ:  cpu time    0.0106: real time    0.0106
    EDDIAG:  cpu time    0.2065: real time    0.2081
  RMM-DIIS:  cpu time    0.8703: real time    0.8768
    ORTHCH:  cpu time    0.0161: real time    0.0162
       DOS:  cpu time    0.0003: real time    0.0003
    CHARGE:  cpu time    0.1035: real time    0.1056
    MIXING:  cpu time    0.0202: real time    0.0203
    --------------------------------------------
      LOOP:  cpu time    1.9604: real time    1.9783

 eigenvalue-minimisations  :   134
 total energy-change (2. order) : 0.1693701E+02  (-0.3316305E+01)
 number of electron      35.0000001 magnetization       6.2551282
 augmentation part       -0.6268109 magnetization       5.3966446

 DIPCOR: dipole corrections for dipol
 direction  3 min pos   269,
 dipolmoment           0.000000      0.000000     -0.189970 electrons x Angstroem
 Tr[quadrupol]      -683.496887

 energy correction for charged system         0.000000 eV
 dipol+quadrupol energy correction           -0.001877 eV
 added-field ion interaction          5.226188 eV  (added to PSCEN)


 Broyden mixing:
  rms(total) = 0.12588E+01    rms(broyden)= 0.12582E+01
  rms(prec ) = 0.12737E+01
  weight for this iteration     100.00

 eigenvalues of (default mixing * dielectric matrix)
  average eigenvalue GAMMA=   0.7051
  0.7051

 Free energy of the ion-electron system (eV)
  ---------------------------------------------------
  alpha Z        PSCENC =         8.24528287
  Ewald energy   TEWEN  =      3136.61422134
  -Hartree energ DENC   =     -4796.04520676
  -exchange      EXHF   =         0.00000000
  -V(xc)+E(xc)   XCENC  =       138.72058015
  PAW double counting   =      2030.54385435    -2036.07882865
  entropy T*S    EENTRO =        -0.00000000
  eigenvalues    EBANDS =      -493.22779934
  atomic energy  EATOM  =      1990.95269145
  Solvation  Ecorr_sol  =         0.00000000
  ---------------------------------------------------
  free energy    TOTEN  =       -20.27520460 eV

  energy without entropy =      -20.27520460  energy(sigma->0) =      -20.27520460


--------------------------------------------------------------------------------------------------------




--------------------------------------- Iteration      1(   7)  ---------------------------------------


    POTLOK:  cpu time    0.7093: real time    0.7157
    SETDIJ:  cpu time    0.0107: real time    0.0108
    EDDIAG:  cpu time    0.2045: real time    0.2060
  RMM-DIIS:  cpu time    0.7975: real time    0.8037
    ORTHCH:  cpu time    0.0148: real time    0.0148
       DOS:  cpu time    0.0003: real time    0.0003
    CHARGE:  cpu time    0.1248: real time    0.1259
    MIXING:  cpu time    0.0188: real time    0.0189
    --------------------------------------------
      LOOP:  cpu time    1.8808: real time    1.8961

 eigenvalue-minimisations  :   136
 total energy-change (2. order) :-0.5916600E+01  (-0.5876301E+00)
 number of electron      35.0000001 magnetization       6.0134765
 augmentation part       -0.5823810 magnetization       5.2083889

 DIPCOR: dipole corrections for dipol
 direction  3 min pos   269,
 dipolmoment           0.000000      0.000000     -0.162941 electrons x Angstroem
 Tr[quadrupol]      -682.984628

 energy correction for charged system         0.000000 eV
 dipol+quadrupol energy correction           -0.001381 eV
 added-field ion interaction          4.482601 eV  (added to PSCEN)


 Broyden mixing:
  rms(total) = 0.10121E+01    rms(broyden)= 0.10113E+01
  rms(prec ) = 0.10315E+01
  weight for this iteration     100.00

 eigenvalues of (default mixing * dielectric matrix)
  average eigenvalue GAMMA=   0.6371
  0.7094  0.5648

 Free energy of the ion-electron system (eV)
  ---------------------------------------------------
  alpha Z        PSCENC =         7.50219142
  Ewald energy   TEWEN  =      3136.61422134
  -Hartree energ DENC   =     -4800.44207231
  -exchange      EXHF   =         0.00000000
  -V(xc)+E(xc)   XCENC  =       134.62069520
  PAW double counting   =      2271.24931787    -2276.79156448
  entropy T*S    EENTRO =        -0.00000000
  eigenvalues    EBANDS =      -489.89728510
  atomic energy  EATOM  =      1990.95269145
  Solvation  Ecorr_sol  =         0.00000000
  ---------------------------------------------------
  free energy    TOTEN  =       -26.19180462 eV

  energy without entropy =      -26.19180462  energy(sigma->0) =      -26.19180462


--------------------------------------------------------------------------------------------------------




--------------------------------------- Iteration      1(   8)  ---------------------------------------


    POTLOK:  cpu time    0.7375: real time    0.7448
    SETDIJ:  cpu time    0.0076: real time    0.0077
    EDDIAG:  cpu time    0.1972: real time    0.1986
  RMM-DIIS:  cpu time    0.8385: real time    0.8449
    ORTHCH:  cpu time    0.0185: real time    0.0186
       DOS:  cpu time    0.0003: real time    0.0003
    CHARGE:  cpu time    0.1119: real time    0.1127
    MIXING:  cpu time    0.0195: real time    0.0196
    --------------------------------------------
      LOOP:  cpu time    1.9310: real time    1.9471

 eigenvalue-minimisations  :   141
 total energy-change (2. order) :-0.1816197E+01  (-0.2430106E+00)
 number of electron      35.0000001 magnetization       5.5357345
 augmentation part       -0.5191478 magnetization       4.7142968

 DIPCOR: dipole corrections for dipol
 direction  3 min pos   269,
 dipolmoment           0.000000      0.000000     -0.154141 electrons x Angstroem
 Tr[quadrupol]      -682.758751

 energy correction for charged system         0.000000 eV
 dipol+quadrupol energy correction           -0.001236 eV
 added-field ion interaction          4.240519 eV  (added to PSCEN)


 Broyden mixing:
  rms(total) = 0.93091E+00    rms(broyden)= 0.92958E+00
  rms(prec ) = 0.94784E+00
  weight for this iteration     100.00

 eigenvalues of (default mixing * dielectric matrix)
  average eigenvalue GAMMA=   0.7907
  1.3356  0.7389  0.2975

 Free energy of the ion-electron system (eV)
  ---------------------------------------------------
  alpha Z        PSCENC =         7.26025485
  Ewald energy   TEWEN  =      3136.61422134
  -Hartree energ DENC   =     -4803.01921485
  -exchange      EXHF   =         0.00000000
  -V(xc)+E(xc)   XCENC  =       133.31827909
  PAW double counting   =      2416.00908361    -2421.60391619
  entropy T*S    EENTRO =        -0.00000000
  eigenvalues    EBANDS =      -487.53940098
  atomic energy  EATOM  =      1990.95269145
  Solvation  Ecorr_sol  =         0.00000000
  ---------------------------------------------------
  free energy    TOTEN  =       -28.00800170 eV

  energy without entropy =      -28.00800170  energy(sigma->0) =      -28.00800170


--------------------------------------------------------------------------------------------------------




--------------------------------------- Iteration      1(   9)  ---------------------------------------


    POTLOK:  cpu time    0.6844: real time    0.6912
    SETDIJ:  cpu time    0.0071: real time    0.0072
    EDDIAG:  cpu time    0.1969: real time    0.1982
  RMM-DIIS:  cpu time    0.7985: real time    0.8044
    ORTHCH:  cpu time    0.0156: real time    0.0156
       DOS:  cpu time    0.0002: real time    0.0002
    CHARGE:  cpu time    0.1164: real time    0.1172
    MIXING:  cpu time    0.0185: real time    0.0186
    --------------------------------------------
      LOOP:  cpu time    1.8377: real time    1.8528

 eigenvalue-minimisations  :   134
 total energy-change (2. order) :-0.2921647E+01  (-0.1571527E+00)
 number of electron      35.0000001 magnetization       5.2530101
 augmentation part       -0.4208490 magnetization       4.3797948

 DIPCOR: dipole corrections for dipol
 direction  3 min pos   269,
 dipolmoment           0.000000      0.000000     -0.160246 electrons x Angstroem
 Tr[quadrupol]      -682.794509

 energy correction for charged system         0.000000 eV
 dipol+quadrupol energy correction           -0.001335 eV
 added-field ion interaction          4.408463 eV  (added to PSCEN)


 Broyden mixing:
  rms(total) = 0.51789E+00    rms(broyden)= 0.51755E+00
  rms(prec ) = 0.53162E+00
  weight for this iteration     100.00

 eigenvalues of (default mixing * dielectric matrix)
  average eigenvalue GAMMA=   0.8636
  1.5529  0.7949  0.7949  0.3118

 Free energy of the ion-electron system (eV)
  ---------------------------------------------------
  alpha Z        PSCENC =         7.42809908
  Ewald energy   TEWEN  =      3136.61422134
  -Hartree energ DENC   =     -4809.14680500
  -exchange      EXHF   =         0.00000000
  -V(xc)+E(xc)   XCENC  =       131.48980701
  PAW double counting   =      2684.65399925    -2690.34665938
  entropy T*S    EENTRO =        -0.00000000
  eigenvalues    EBANDS =      -482.57500199
  atomic energy  EATOM  =      1990.95269145
  Solvation  Ecorr_sol  =         0.00000000
  ---------------------------------------------------
  free energy    TOTEN  =       -30.92964826 eV

  energy without entropy =      -30.92964826  energy(sigma->0) =      -30.92964826


--------------------------------------------------------------------------------------------------------




--------------------------------------- Iteration      1(  10)  ---------------------------------------


    POTLOK:  cpu time    0.7088: real time    0.7153
    SETDIJ:  cpu time    0.0110: real time    0.0111
    EDDIAG:  cpu time    0.2043: real time    0.2058
  RMM-DIIS:  cpu time    0.7688: real time    0.7742
    ORTHCH:  cpu time    0.0158: real time    0.0159
       DOS:  cpu time    0.0005: real time    0.0005
    CHARGE:  cpu time    0.1095: real time    0.1103
    MIXING:  cpu time    0.0164: real time    0.0165
    --------------------------------------------
      LOOP:  cpu time    1.8352: real time    1.8496

 eigenvalue-minimisations  :   133
 total energy-change (2. order) :-0.7864216E+00  (-0.7366025E-01)
 number of electron      35.0000001 magnetization       4.9314531
 augmentation part       -0.5031211 magnetization       4.0888768

 DIPCOR: dipole corrections for dipol
 direction  3 min pos   269,
 dipolmoment           0.000000      0.000000     -0.214389 electrons x Angstroem
 Tr[quadrupol]      -683.848336

 energy correction for charged system         0.000000 eV
 dipol+quadrupol energy correction           -0.002390 eV
 added-field ion interaction          5.897973 eV  (added to PSCEN)


 Broyden mixing:
  rms(total) = 0.45880E+00    rms(broyden)= 0.45752E+00
  rms(prec ) = 0.46731E+00
  weight for this iteration     100.00

 eigenvalues of (default mixing * dielectric matrix)
  average eigenvalue GAMMA=   0.9050
  1.9188  0.8114  0.7269  0.7269  0.3408

 Free energy of the ion-electron system (eV)
  ---------------------------------------------------
  alpha Z        PSCENC =         8.91655372
  Ewald energy   TEWEN  =      3136.61422134
  -Hartree energ DENC   =     -4814.51960870
  -exchange      EXHF   =         0.00000000
  -V(xc)+E(xc)   XCENC  =       131.05014388
  PAW double counting   =      2783.07660882    -2788.79321386
  entropy T*S    EENTRO =        -0.00000000
  eigenvalues    EBANDS =      -479.01346655
  atomic energy  EATOM  =      1990.95269145
  Solvation  Ecorr_sol  =         0.00000000
  ---------------------------------------------------
  free energy    TOTEN  =       -31.71606990 eV

  energy without entropy =      -31.71606990  energy(sigma->0) =      -31.71606990


--------------------------------------------------------------------------------------------------------




--------------------------------------- Iteration      1(  11)  ---------------------------------------


    POTLOK:  cpu time    0.6833: real time    0.6890
    SETDIJ:  cpu time    0.0115: real time    0.0115
    EDDIAG:  cpu time    0.2026: real time    0.2041
  RMM-DIIS:  cpu time    0.7557: real time    0.7612
    ORTHCH:  cpu time    0.0166: real time    0.0167
       DOS:  cpu time    0.0002: real time    0.0002
    CHARGE:  cpu time    0.1113: real time    0.1121
    MIXING:  cpu time    0.0202: real time    0.0203
    --------------------------------------------
      LOOP:  cpu time    1.8014: real time    1.8152

 eigenvalue-minimisations  :   128
 total energy-change (2. order) :-0.9132763E+00  (-0.2584956E-01)
 number of electron      35.0000001 magnetization       4.5963954
 augmentation part       -0.5101352 magnetization       3.7575135

 DIPCOR: dipole corrections for dipol
 direction  3 min pos   269,
 dipolmoment           0.000000      0.000000     -0.241223 electrons x Angstroem
 Tr[quadrupol]      -684.243606

 energy correction for charged system         0.000000 eV
 dipol+quadrupol energy correction           -0.003026 eV
 added-field ion interaction          6.636184 eV  (added to PSCEN)


 Broyden mixing:
  rms(total) = 0.49706E+00    rms(broyden)= 0.49571E+00
  rms(prec ) = 0.50760E+00
  weight for this iteration     100.00

 eigenvalues of (default mixing * dielectric matrix)
  average eigenvalue GAMMA=   0.9244
  2.2454  0.9185  0.7795  0.7795  0.4355  0.3876

 Free energy of the ion-electron system (eV)
  ---------------------------------------------------
  alpha Z        PSCENC =         9.65412941
  Ewald energy   TEWEN  =      3136.61422134
  -Hartree energ DENC   =     -4814.24214700
  -exchange      EXHF   =         0.00000000
  -V(xc)+E(xc)   XCENC  =       130.31901790
  PAW double counting   =      2844.15777299    -2849.84078852
  entropy T*S    EENTRO =        -0.00000000
  eigenvalues    EBANDS =      -480.24424376
  atomic energy  EATOM  =      1990.95269145
  Solvation  Ecorr_sol  =         0.00000000
  ---------------------------------------------------
  free energy    TOTEN  =       -32.62934619 eV

  energy without entropy =      -32.62934619  energy(sigma->0) =      -32.62934619


--------------------------------------------------------------------------------------------------------




--------------------------------------- Iteration      1(  12)  ---------------------------------------


    POTLOK:  cpu time    0.7139: real time    0.7211
    SETDIJ:  cpu time    0.0075: real time    0.0076
    EDDIAG:  cpu time    0.2093: real time    0.2107
  RMM-DIIS:  cpu time    0.7471: real time    0.7527
    ORTHCH:  cpu time    0.0165: real time    0.0166
       DOS:  cpu time    0.0007: real time    0.0007
    CHARGE:  cpu time    0.1159: real time    0.1167
    MIXING:  cpu time    0.0195: real time    0.0196
    --------------------------------------------
      LOOP:  cpu time    1.8305: real time    1.8457

 eigenvalue-minimisations  :   126
 total energy-change (2. order) :-0.7981927E+00  (-0.1687431E-01)
 number of electron      35.0000001 magnetization       4.2282074
 augmentation part       -0.5131822 magnetization       3.3970645

 DIPCOR: dipole corrections for dipol
 direction  3 min pos   269,
 dipolmoment           0.000000      0.000000     -0.266417 electrons x Angstroem
 Tr[quadrupol]      -684.595320

 energy correction for charged system         0.000000 eV
 dipol+quadrupol energy correction           -0.003691 eV
 added-field ion interaction          7.329293 eV  (added to PSCEN)


 Broyden mixing:
  rms(total) = 0.45989E+00    rms(broyden)= 0.45818E+00
  rms(prec ) = 0.46892E+00
  weight for this iteration     100.00

 eigenvalues of (default mixing * dielectric matrix)
  average eigenvalue GAMMA=   0.9868
  2.4869  1.2201  0.8352  0.8352  0.8039  0.3630  0.3630

 Free energy of the ion-electron system (eV)
  ---------------------------------------------------
  alpha Z        PSCENC =        10.34657313
  Ewald energy   TEWEN  =      3136.61422134
  -Hartree energ DENC   =     -4813.64774545
  -exchange      EXHF   =         0.00000000
  -V(xc)+E(xc)   XCENC  =       129.59875850
  PAW double counting   =      2886.34710759    -2891.99373486
  entropy T*S    EENTRO =        -0.00000000
  eigenvalues    EBANDS =      -481.64541056
  atomic energy  EATOM  =      1990.95269145
  Solvation  Ecorr_sol  =         0.00000000
  ---------------------------------------------------
  free energy    TOTEN  =       -33.42753888 eV

  energy without entropy =      -33.42753888  energy(sigma->0) =      -33.42753888


--------------------------------------------------------------------------------------------------------




--------------------------------------- Iteration      1(  13)  ---------------------------------------


    POTLOK:  cpu time    0.6956: real time    0.7016
    SETDIJ:  cpu time    0.0090: real time    0.0091
    EDDIAG:  cpu time    0.2150: real time    0.2166
  RMM-DIIS:  cpu time    0.7699: real time    0.7753
    ORTHCH:  cpu time    0.0163: real time    0.0164
       DOS:  cpu time    0.0002: real time    0.0002
    CHARGE:  cpu time    0.1217: real time    0.1226
    MIXING:  cpu time    0.0185: real time    0.0186
    --------------------------------------------
      LOOP:  cpu time    1.8462: real time    1.8604

 eigenvalue-minimisations  :   125
 total energy-change (2. order) :-0.6925002E+00  (-0.1124509E-01)
 number of electron      35.0000001 magnetization       4.0409454
 augmentation part       -0.5064762 magnetization       3.2077747

 DIPCOR: dipole corrections for dipol
 direction  3 min pos   269,
 dipolmoment           0.000000      0.000000     -0.290254 electrons x Angstroem
 Tr[quadrupol]      -684.841716

 energy correction for charged system         0.000000 eV
 dipol+quadrupol energy correction           -0.004381 eV
 added-field ion interaction          7.985071 eV  (added to PSCEN)


 Broyden mixing:
  rms(total) = 0.50699E+00    rms(broyden)= 0.50515E+00
  rms(prec ) = 0.51759E+00
  weight for this iteration     100.00

 eigenvalues of (default mixing * dielectric matrix)
  average eigenvalue GAMMA=   0.9436
  2.4432  1.1964  0.7954  0.7954  0.8325  0.8325  0.3265  0.3265

 Free energy of the ion-electron system (eV)
  ---------------------------------------------------
  alpha Z        PSCENC =        11.00166067
  Ewald energy   TEWEN  =      3136.61422134
  -Hartree energ DENC   =     -4812.20199776
  -exchange      EXHF   =         0.00000000
  -V(xc)+E(xc)   XCENC  =       128.98659213
  PAW double counting   =      2895.58568916    -2901.20116282
  entropy T*S    EENTRO =        -0.00000000
  eigenvalues    EBANDS =      -483.85773327
  atomic energy  EATOM  =      1990.95269145
  Solvation  Ecorr_sol  =         0.00000000
  ---------------------------------------------------
  free energy    TOTEN  =       -34.12003912 eV

  energy without entropy =      -34.12003912  energy(sigma->0) =      -34.12003912


--------------------------------------------------------------------------------------------------------




--------------------------------------- Iteration      1(  14)  ---------------------------------------


    POTLOK:  cpu time    0.7102: real time    0.7163
    SETDIJ:  cpu time    0.0114: real time    0.0115
    EDDIAG:  cpu time    0.2142: real time    0.2160
  RMM-DIIS:  cpu time    0.7898: real time    0.7955
    ORTHCH:  cpu time    0.0176: real time    0.0177
       DOS:  cpu time    0.0003: real time    0.0003
    CHARGE:  cpu time    0.1199: real time    0.1209
    MIXING:  cpu time    0.0180: real time    0.0181
    --------------------------------------------
      LOOP:  cpu time    1.8815: real time    1.8962

 eigenvalue-minimisations  :   137
 total energy-change (2. order) :-0.2493293E+00  (-0.4198982E-02)
 number of electron      35.0000001 magnetization       3.7427277
 augmentation part       -0.5147420 magnetization       2.9164953

 DIPCOR: dipole corrections for dipol
 direction  3 min pos   269,
 dipolmoment           0.000000      0.000000     -0.304672 electrons x Angstroem
 Tr[quadrupol]      -684.990195

 energy correction for charged system         0.000000 eV
 dipol+quadrupol energy correction           -0.004827 eV
 added-field ion interaction          8.381718 eV  (added to PSCEN)


 Broyden mixing:
  rms(total) = 0.41977E+00    rms(broyden)= 0.41970E+00
  rms(prec ) = 0.43004E+00
  weight for this iteration     100.00

 eigenvalues of (default mixing * dielectric matrix)
  average eigenvalue GAMMA=   0.9029
  2.3942  1.0646  1.0646  1.0542  0.5957  0.5957  0.6574  0.3499  0.3499

 Free energy of the ion-electron system (eV)
  ---------------------------------------------------
  alpha Z        PSCENC =        11.39786235
  Ewald energy   TEWEN  =      3136.61422134
  -Hartree energ DENC   =     -4811.89852167
  -exchange      EXHF   =         0.00000000
  -V(xc)+E(xc)   XCENC  =       128.75930735
  PAW double counting   =      2887.44382393    -2893.05434185
  entropy T*S    EENTRO =        -0.00052727
  eigenvalues    EBANDS =      -484.58388400
  atomic energy  EATOM  =      1990.95269145
  Solvation  Ecorr_sol  =         0.00000000
  ---------------------------------------------------
  free energy    TOTEN  =       -34.36936839 eV

  energy without entropy =      -34.36884112  energy(sigma->0) =      -34.36910476


--------------------------------------------------------------------------------------------------------




--------------------------------------- Iteration      1(  15)  ---------------------------------------


    POTLOK:  cpu time    0.7072: real time    0.7143
    SETDIJ:  cpu time    0.0120: real time    0.0120
    EDDIAG:  cpu time    0.1969: real time    0.1983
  RMM-DIIS:  cpu time    0.7255: real time    0.7310
    ORTHCH:  cpu time    0.0197: real time    0.0198
       DOS:  cpu time    0.0002: real time    0.0002
    CHARGE:  cpu time    0.1225: real time    0.1235
    MIXING:  cpu time    0.0194: real time    0.0196
    --------------------------------------------
      LOOP:  cpu time    1.8033: real time    1.8188

 eigenvalue-minimisations  :   127
 total energy-change (2. order) :-0.4734869E+00  (-0.8204733E-02)
 number of electron      35.0000001 magnetization       3.7212684
 augmentation part       -0.5387803 magnetization       2.9230552

 DIPCOR: dipole corrections for dipol
 direction  3 min pos   269,
 dipolmoment           0.000000      0.000000     -0.320272 electrons x Angstroem
 Tr[quadrupol]      -685.037705

 energy correction for charged system         0.000000 eV
 dipol+quadrupol energy correction           -0.005334 eV
 added-field ion interaction          8.810882 eV  (added to PSCEN)


 Broyden mixing:
  rms(total) = 0.68125E+00    rms(broyden)= 0.67865E+00
  rms(prec ) = 0.69662E+00
  weight for this iteration     100.00

 eigenvalues of (default mixing * dielectric matrix)
  average eigenvalue GAMMA=   0.8351
  2.3841  1.1008  1.1008  0.9732  0.6029  0.6029  0.4606  0.4606  0.3328  0.3328

 Free energy of the ion-electron system (eV)
  ---------------------------------------------------
  alpha Z        PSCENC =        11.82651896
  Ewald energy   TEWEN  =      3136.61422134
  -Hartree energ DENC   =     -4810.91372396
  -exchange      EXHF   =         0.00000000
  -V(xc)+E(xc)   XCENC  =       128.38771748
  PAW double counting   =      2873.46455688    -2879.07093757
  entropy T*S    EENTRO =        -0.00000000
  eigenvalues    EBANDS =      -486.10389983
  atomic energy  EATOM  =      1990.95269145
  Solvation  Ecorr_sol  =         0.00000000
  ---------------------------------------------------
  free energy    TOTEN  =       -34.84285526 eV

  energy without entropy =      -34.84285526  energy(sigma->0) =      -34.84285526


--------------------------------------------------------------------------------------------------------




--------------------------------------- Iteration      1(  16)  ---------------------------------------


    POTLOK:  cpu time    0.7168: real time    0.7237
    SETDIJ:  cpu time    0.0071: real time    0.0071
    EDDIAG:  cpu time    0.1946: real time    0.1963
  RMM-DIIS:  cpu time    0.8582: real time    0.8647
    ORTHCH:  cpu time    0.0180: real time    0.0181
       DOS:  cpu time    0.0003: real time    0.0003
    CHARGE:  cpu time    0.1239: real time    0.1249
    MIXING:  cpu time    0.0231: real time    0.0233
    --------------------------------------------
      LOOP:  cpu time    1.9420: real time    1.9584

 eigenvalue-minimisations  :   136
 total energy-change (2. order) : 0.6561725E-01  (-0.1611236E-02)
 number of electron      35.0000001 magnetization       3.5264936
 augmentation part       -0.5374806 magnetization       2.7286173

 DIPCOR: dipole corrections for dipol
 direction  3 min pos   269,
 dipolmoment           0.000000      0.000000     -0.319436 electrons x Angstroem
 Tr[quadrupol]      -684.998221

 energy correction for charged system         0.000000 eV
 dipol+quadrupol energy correction           -0.005306 eV
 added-field ion interaction          8.787872 eV  (added to PSCEN)


 Broyden mixing:
  rms(total) = 0.65885E+00    rms(broyden)= 0.65874E+00
  rms(prec ) = 0.67623E+00
  weight for this iteration     100.00

 eigenvalues of (default mixing * dielectric matrix)
  average eigenvalue GAMMA=   0.9062
  2.3757  0.9023  0.9023  1.1775  0.9250  0.9250  0.7256  0.7256  0.6225  0.3432
  0.3432

 Free energy of the ion-electron system (eV)
  ---------------------------------------------------
  alpha Z        PSCENC =        11.80353731
  Ewald energy   TEWEN  =      3136.61422134
  -Hartree energ DENC   =     -4810.80484975
  -exchange      EXHF   =         0.00000000
  -V(xc)+E(xc)   XCENC  =       128.43867706
  PAW double counting   =      2873.27592512    -2878.88377108
  entropy T*S    EENTRO =        -0.00000000
  eigenvalues    EBANDS =      -486.17366947
  atomic energy  EATOM  =      1990.95269145
  Solvation  Ecorr_sol  =         0.00000000
  ---------------------------------------------------
  free energy    TOTEN  =       -34.77723802 eV

  energy without entropy =      -34.77723802  energy(sigma->0) =      -34.77723802


--------------------------------------------------------------------------------------------------------




--------------------------------------- Iteration      1(  17)  ---------------------------------------


    POTLOK:  cpu time    0.6826: real time    0.6877
    SETDIJ:  cpu time    0.0075: real time    0.0075
    EDDIAG:  cpu time    0.2129: real time    0.2145
  RMM-DIIS:  cpu time    0.8167: real time    0.8225
    ORTHCH:  cpu time    0.0197: real time    0.0198
       DOS:  cpu time    0.0002: real time    0.0002
    CHARGE:  cpu time    0.1028: real time    0.1035
    MIXING:  cpu time    0.0218: real time    0.0219
    --------------------------------------------
      LOOP:  cpu time    1.8643: real time    1.8776

 eigenvalue-minimisations  :   131
 total energy-change (2. order) :-0.2924011E+00  (-0.8718238E-02)
 number of electron      35.0000001 magnetization       2.5567426
 augmentation part       -0.5099478 magnetization       1.7349711

 DIPCOR: dipole corrections for dipol
 direction  3 min pos   269,
 dipolmoment           0.000000      0.000000     -0.321029 electrons x Angstroem
 Tr[quadrupol]      -684.841777

 energy correction for charged system         0.000000 eV
 dipol+quadrupol energy correction           -0.005359 eV
 added-field ion interaction          8.831714 eV  (added to PSCEN)


 Broyden mixing:
  rms(total) = 0.53335E+00    rms(broyden)= 0.52972E+00
  rms(prec ) = 0.54406E+00
  weight for this iteration     100.00

 eigenvalues of (default mixing * dielectric matrix)
  average eigenvalue GAMMA=   1.0677
  2.5711  2.0173  2.0173  1.2664  0.7109  0.7109  0.7216  0.7216  0.7671  0.6241
  0.3422  0.3422

 Free energy of the ion-electron system (eV)
  ---------------------------------------------------
  alpha Z        PSCENC =        11.84732601
  Ewald energy   TEWEN  =      3136.61422134
  -Hartree energ DENC   =     -4809.27905663
  -exchange      EXHF   =         0.00000000
  -V(xc)+E(xc)   XCENC  =       128.17854678
  PAW double counting   =      2872.00965463    -2877.60336856
  entropy T*S    EENTRO =        -0.00000000
  eigenvalues    EBANDS =      -487.78965410
  atomic energy  EATOM  =      1990.95269145
  Solvation  Ecorr_sol  =         0.00000000
  ---------------------------------------------------
  free energy    TOTEN  =       -35.06963908 eV

  energy without entropy =      -35.06963908  energy(sigma->0) =      -35.06963908


--------------------------------------------------------------------------------------------------------




--------------------------------------- Iteration      1(  18)  ---------------------------------------


    POTLOK:  cpu time    0.6791: real time    0.6847
    SETDIJ:  cpu time    0.0110: real time    0.7388
    EDDIAG:  cpu time    0.2042: real time    0.2058
  RMM-DIIS:  cpu time    0.7387: real time    0.7440
    ORTHCH:  cpu time    0.0193: real time    0.0194
       DOS:  cpu time    0.0003: real time    0.0003
    CHARGE:  cpu time    0.1132: real time    0.1141
    MIXING:  cpu time    0.0278: real time    0.0280
    --------------------------------------------
      LOOP:  cpu time    1.7936: real time    2.5350

 eigenvalue-minimisations  :   121
 total energy-change (2. order) :-0.1225542E+01  (-0.3834467E-01)
 number of electron      35.0000001 magnetization       2.2461754
 augmentation part       -0.4858941 magnetization       1.4106300

 DIPCOR: dipole corrections for dipol
 direction  3 min pos   269,
 dipolmoment           0.000000      0.000000     -0.359821 electrons x Angstroem
 Tr[quadrupol]      -684.818758

 energy correction for charged system         0.000000 eV
 dipol+quadrupol energy correction           -0.006733 eV
 added-field ion interaction          9.898909 eV  (added to PSCEN)


 Broyden mixing:
  rms(total) = 0.53762E+00    rms(broyden)= 0.53750E+00
  rms(prec ) = 0.55111E+00
  weight for this iteration     100.00

 eigenvalues of (default mixing * dielectric matrix)
  average eigenvalue GAMMA=   1.0481
  2.8996  1.6917  1.5634  1.5634  0.8172  0.8172  0.7169  0.7169  0.7456  0.7456
  0.6630  0.3423  0.3423

 Free energy of the ion-electron system (eV)
  ---------------------------------------------------
  alpha Z        PSCENC =        12.91314721
  Ewald energy   TEWEN  =      3136.61422134
  -Hartree energ DENC   =     -4805.69146343
  -exchange      EXHF   =         0.00000000
  -V(xc)+E(xc)   XCENC  =       127.05515088
  PAW double counting   =      2861.42162558    -2866.98743299
  entropy T*S    EENTRO =        -0.00000000
  eigenvalues    EBANDS =      -492.57312149
  atomic energy  EATOM  =      1990.95269145
  Solvation  Ecorr_sol  =         0.00000000
  ---------------------------------------------------
  free energy    TOTEN  =       -36.29518146 eV

  energy without entropy =      -36.29518146  energy(sigma->0) =      -36.29518146


--------------------------------------------------------------------------------------------------------




--------------------------------------- Iteration      1(  19)  ---------------------------------------


    POTLOK:  cpu time    0.6876: real time    0.6927
    SETDIJ:  cpu time    0.0077: real time    0.0077
    EDDIAG:  cpu time    0.2168: real time    0.2186
  RMM-DIIS:  cpu time    0.7837: real time    0.7892
    ORTHCH:  cpu time    0.0169: real time    0.0170
       DOS:  cpu time    0.0002: real time    0.0002
    CHARGE:  cpu time    0.1174: real time    0.1183
    MIXING:  cpu time    0.0213: real time    0.0214
    --------------------------------------------
      LOOP:  cpu time    1.8519: real time    1.8654

 eigenvalue-minimisations  :   133
 total energy-change (2. order) :-0.2389777E+00  (-0.1031819E-01)
 number of electron      35.0000001 magnetization       2.2458984
 augmentation part       -0.4886000 magnetization       1.4089134

 DIPCOR: dipole corrections for dipol
 direction  3 min pos   269,
 dipolmoment           0.000000      0.000000     -0.388749 electrons x Angstroem
 Tr[quadrupol]      -685.227380

 energy correction for charged system         0.000000 eV
 dipol+quadrupol energy correction           -0.007859 eV
 added-field ion interaction         10.694734 eV  (added to PSCEN)


 Broyden mixing:
  rms(total) = 0.46453E+00    rms(broyden)= 0.46237E+00
  rms(prec ) = 0.47240E+00
  weight for this iteration     100.00

 eigenvalues of (default mixing * dielectric matrix)
  average eigenvalue GAMMA=   1.0362
  3.0002  2.4656  0.9739  0.9739  1.2156  1.2156  0.6237  0.6237  0.7235  0.7235
  0.7152  0.5687  0.3422  0.3422

 Free energy of the ion-electron system (eV)
  ---------------------------------------------------
  alpha Z        PSCENC =        13.70784632
  Ewald energy   TEWEN  =      3136.61422134
  -Hartree energ DENC   =     -4805.94013477
  -exchange      EXHF   =         0.00000000
  -V(xc)+E(xc)   XCENC  =       126.79466816
  PAW double counting   =      2852.69249412    -2858.25781359
  entropy T*S    EENTRO =        -0.00000000
  eigenvalues    EBANDS =      -493.09813221
  atomic energy  EATOM  =      1990.95269145
  Solvation  Ecorr_sol  =         0.00000000
  ---------------------------------------------------
  free energy    TOTEN  =       -36.53415918 eV

  energy without entropy =      -36.53415918  energy(sigma->0) =      -36.53415918


--------------------------------------------------------------------------------------------------------




--------------------------------------- Iteration      1(  20)  ---------------------------------------


    POTLOK:  cpu time    0.7203: real time    0.7269
    SETDIJ:  cpu time    0.0101: real time    0.0101
    EDDIAG:  cpu time    0.2072: real time    0.2090
  RMM-DIIS:  cpu time    0.8227: real time    0.8301
    ORTHCH:  cpu time    0.0177: real time    0.0179
       DOS:  cpu time    0.0003: real time    0.0003
    CHARGE:  cpu time    0.1064: real time    0.1073
    MIXING:  cpu time    0.0255: real time    0.0257
    --------------------------------------------
      LOOP:  cpu time    1.9100: real time    1.9269

 eigenvalue-minimisations  :   141
 total energy-change (2. order) :-0.6425418E-01  (-0.2278176E-02)
 number of electron      35.0000001 magnetization       1.7904775
 augmentation part       -0.5233648 magnetization       0.9841116

 DIPCOR: dipole corrections for dipol
 direction  3 min pos   269,
 dipolmoment           0.000000      0.000000     -0.395824 electrons x Angstroem
 Tr[quadrupol]      -685.393901

 energy correction for charged system         0.000000 eV
 dipol+quadrupol energy correction           -0.008148 eV
 added-field ion interaction         10.889369 eV  (added to PSCEN)


 Broyden mixing:
  rms(total) = 0.64060E+00    rms(broyden)= 0.64009E+00
  rms(prec ) = 0.65706E+00
  weight for this iteration     100.00

 eigenvalues of (default mixing * dielectric matrix)
  average eigenvalue GAMMA=   1.2812
  7.1248  2.4002  0.7801  0.7801  1.2983  1.0278  1.0278  0.6278  0.6278  0.7982
  0.6964  0.6964  0.6476  0.3423  0.3423

 Free energy of the ion-electron system (eV)
  ---------------------------------------------------
  alpha Z        PSCENC =        13.90219229
  Ewald energy   TEWEN  =      3136.61422134
  -Hartree energ DENC   =     -4806.22534937
  -exchange      EXHF   =         0.00000000
  -V(xc)+E(xc)   XCENC  =       126.75604753
  PAW double counting   =      2850.27295617    -2855.83792733
  entropy T*S    EENTRO =        -0.00000000
  eigenvalues    EBANDS =      -493.03324543
  atomic energy  EATOM  =      1990.95269145
  Solvation  Ecorr_sol  =         0.00000000
  ---------------------------------------------------
  free energy    TOTEN  =       -36.59841337 eV

  energy without entropy =      -36.59841337  energy(sigma->0) =      -36.59841337


--------------------------------------------------------------------------------------------------------




--------------------------------------- Iteration      1(  21)  ---------------------------------------


    POTLOK:  cpu time    0.6926: real time    0.6979
    SETDIJ:  cpu time    0.0096: real time    0.0097
    EDDIAG:  cpu time    0.2097: real time    0.2112
  RMM-DIIS:  cpu time    0.7355: real time    0.7410
    ORTHCH:  cpu time    0.0157: real time    0.0158
       DOS:  cpu time    0.0002: real time    0.0002
    CHARGE:  cpu time    0.1201: real time    0.1210
    MIXING:  cpu time    0.0232: real time    0.0234
    --------------------------------------------
      LOOP:  cpu time    1.8066: real time    1.8202

 eigenvalue-minimisations  :   120
 total energy-change (2. order) :-0.2468162E+00  (-0.9553386E-02)
 number of electron      35.0000001 magnetization       1.6416775
 augmentation part       -0.4755600 magnetization       0.7966890

 DIPCOR: dipole corrections for dipol
 direction  3 min pos   269,
 dipolmoment           0.000000      0.000000     -0.403617 electrons x Angstroem
 Tr[quadrupol]      -685.200858

 energy correction for charged system         0.000000 eV
 dipol+quadrupol energy correction           -0.008472 eV
 added-field ion interaction         11.103755 eV  (added to PSCEN)


 Broyden mixing:
  rms(total) = 0.44506E+00    rms(broyden)= 0.44212E+00
  rms(prec ) = 0.45261E+00
  weight for this iteration     100.00

 eigenvalues of (default mixing * dielectric matrix)
  average eigenvalue GAMMA=   1.3197
  8.1934  2.4191  0.8822  0.8822  1.2176  0.9919  0.9919  0.9923  0.6920  0.6920
  0.7589  0.3422  0.3422  0.6092  0.5542  0.5542

 Free energy of the ion-electron system (eV)
  ---------------------------------------------------
  alpha Z        PSCENC =        14.11625494
  Ewald energy   TEWEN  =      3136.61422134
  -Hartree energ DENC   =     -4804.17705711
[...]
  -V(xc)+E(xc)   XCENC  =       126.06151740
  PAW double counting   =      2853.05501443    -2858.61619137
  entropy T*S    EENTRO =        -0.00165738
  eigenvalues    EBANDS =      -495.91135242
  atomic energy  EATOM  =      1990.95269145
  Solvation  Ecorr_sol  =         0.00000000
  ---------------------------------------------------
  free energy    TOTEN  =       -37.23500257 eV

  energy without entropy =      -37.23334519  energy(sigma->0) =      -37.23417388


--------------------------------------------------------------------------------------------------------




--------------------------------------- Iteration      1(  74)  ---------------------------------------


    POTLOK:  cpu time    0.7287: real time    0.7353
    SETDIJ:  cpu time    0.0072: real time    0.0072
    EDDIAG:  cpu time    0.2077: real time    0.2092
  RMM-DIIS:  cpu time    0.4618: real time    0.4655
    ORTHCH:  cpu time    0.0182: real time    0.0183
       DOS:  cpu time    0.0004: real time    0.0004
    CHARGE:  cpu time    0.1265: real time    0.1275
    MIXING:  cpu time    0.0806: real time    0.0813
    --------------------------------------------
      LOOP:  cpu time    1.6312: real time    1.6449

 eigenvalue-minimisations  :    70
 total energy-change (2. order) :-0.2085775E-04  (-0.7179583E-07)
 number of electron      35.0000001 magnetization       1.0002848
 augmentation part       -0.5186220 magnetization       0.1866887

 DIPCOR: dipole corrections for dipol
 direction  3 min pos   269,
 dipolmoment           0.000000      0.000000     -0.377652 electrons x Angstroem
 Tr[quadrupol]      -685.060066

 energy correction for charged system         0.000000 eV
 dipol+quadrupol energy correction           -0.007417 eV
 added-field ion interaction         10.389439 eV  (added to PSCEN)


 Broyden mixing:
  rms(total) = 0.50817E-02    rms(broyden)= 0.50717E-02
  rms(prec ) = 0.52051E-02
  weight for this iteration     100.00

 eigenvalues of (default mixing * dielectric matrix)
  average eigenvalue GAMMA=   1.7757
 11.3071 11.4820  7.6512  4.4085  4.4085  3.4435  3.4435  3.9324  1.8977  1.8977
  1.1745  1.1745  1.3215  1.3215  1.0808  1.0808  1.2702  1.1083  0.0090  0.0005
  0.7060  0.7060  0.1492  0.4018  0.4018  0.7254  0.7254  0.8206  0.8206  0.7349
  0.7349  0.6454  0.6454  0.5864  0.5864  0.4062  0.5211  0.5211  0.6049  0.6049
  0.7131  0.6585  0.6585  0.6374

 Free energy of the ion-electron system (eV)
  ---------------------------------------------------
  alpha Z        PSCENC =        13.40299384
  Ewald energy   TEWEN  =      3136.61422134
  -Hartree energ DENC   =     -4802.78969328
  -exchange      EXHF   =         0.00000000
  -V(xc)+E(xc)   XCENC  =       126.06144430
  PAW double counting   =      2853.05014307    -2858.61131885
  entropy T*S    EENTRO =        -0.00166204
  eigenvalues    EBANDS =      -495.91384325
  atomic energy  EATOM  =      1990.95269145
  Solvation  Ecorr_sol  =         0.00000000
  ---------------------------------------------------
  free energy    TOTEN  =       -37.23502343 eV

  energy without entropy =      -37.23336139  energy(sigma->0) =      -37.23419241


--------------------------------------------------------------------------------------------------------




--------------------------------------- Iteration      1(  75)  ---------------------------------------


    POTLOK:  cpu time    0.7158: real time    0.7228
    SETDIJ:  cpu time    0.0112: real time    0.0112
    EDDIAG:  cpu time    0.2218: real time    0.2234
  RMM-DIIS:  cpu time    0.4255: real time    0.4288
    ORTHCH:  cpu time    0.0192: real time    0.0194
       DOS:  cpu time    0.0004: real time    0.0004
    CHARGE:  cpu time    0.1121: real time    0.1130
    MIXING:  cpu time    0.0682: real time    0.0686
    --------------------------------------------
      LOOP:  cpu time    1.5743: real time    1.5876

 eigenvalue-minimisations  :    59
 total energy-change (2. order) : 0.2107815E-04  (-0.6090840E-07)
 number of electron      35.0000001 magnetization       1.0002504
 augmentation part       -0.5184381 magnetization       0.1864723

 DIPCOR: dipole corrections for dipol
 direction  3 min pos   269,
 dipolmoment           0.000000      0.000000     -0.377684 electrons x Angstroem
 Tr[quadrupol]      -685.060311

 energy correction for charged system         0.000000 eV
 dipol+quadrupol energy correction           -0.007418 eV
 added-field ion interaction         10.390318 eV  (added to PSCEN)


 Broyden mixing:
  rms(total) = 0.48188E-02    rms(broyden)= 0.48179E-02
  rms(prec ) = 0.49460E-02
  weight for this iteration     100.00

 eigenvalues of (default mixing * dielectric matrix)
  average eigenvalue GAMMA=   1.8515
 13.5211 10.7922  5.6962  5.6962  6.5202  2.9052  2.9052  3.0661  1.5323  1.5323
  1.5127  1.1609  1.1609  0.9032  0.9032  0.0003  0.0362  0.4028  0.4028  0.9896
  0.9896  0.5771  0.5771  0.2298  0.7667  0.7667  0.4455  0.4455  0.6363  0.6363
  0.7130  0.7130  0.7423  0.5453  0.5453  0.6208  0.6208  0.6514  0.6403  0.5558

 Free energy of the ion-electron system (eV)
  ---------------------------------------------------
  alpha Z        PSCENC =        13.40387134
  Ewald energy   TEWEN  =      3136.61422134
  -Hartree energ DENC   =     -4802.78756654
  -exchange      EXHF   =         0.00000000
  -V(xc)+E(xc)   XCENC  =       126.06139042
  PAW double counting   =      2853.04622691    -2858.60740064
  entropy T*S    EENTRO =        -0.00166097
  eigenvalues    EBANDS =      -495.91677566
  atomic energy  EATOM  =      1990.95269145
  Solvation  Ecorr_sol  =         0.00000000
  ---------------------------------------------------
  free energy    TOTEN  =       -37.23500235 eV

  energy without entropy =      -37.23334138  energy(sigma->0) =      -37.23417186


--------------------------------------------------------------------------------------------------------




--------------------------------------- Iteration      1(  76)  ---------------------------------------


    POTLOK:  cpu time    0.7249: real time    0.7322
    SETDIJ:  cpu time    0.0094: real time    0.0095
    EDDIAG:  cpu time    0.2174: real time    0.2190
  RMM-DIIS:  cpu time    0.4816: real time    0.4854
    ORTHCH:  cpu time    0.0177: real time    0.0179
       DOS:  cpu time    0.0006: real time    0.0006
    --------------------------------------------
      LOOP:  cpu time    1.4517: real time    1.4645

 eigenvalue-minimisations  :    60
 total energy-change (2. order) : 0.4892298E-05  (-0.1002292E-07)
 number of electron      35.0000001 magnetization       1.0002504
 augmentation part       -0.5184381 magnetization       0.1864723

 DIPCOR: dipole corrections for dipol
 direction  3 min pos   269,
 dipolmoment           0.000000      0.000000     -0.377726 electrons x Angstroem
 Tr[quadrupol]      -685.060722

 energy correction for charged system         0.000000 eV
 dipol+quadrupol energy correction           -0.007420 eV
 added-field ion interaction         10.391467 eV  (added to PSCEN)


 Free energy of the ion-electron system (eV)
  ---------------------------------------------------
  alpha Z        PSCENC =        13.40501881
  Ewald energy   TEWEN  =      3136.61422134
  -Hartree energ DENC   =     -4802.78591758
  -exchange      EXHF   =         0.00000000
  -V(xc)+E(xc)   XCENC  =       126.06133607
  PAW double counting   =      2853.04392606    -2858.60509924
  entropy T*S    EENTRO =        -0.00165713
  eigenvalues    EBANDS =      -495.91951723
  atomic energy  EATOM  =      1990.95269145
  Solvation  Ecorr_sol  =         0.00000000
  ---------------------------------------------------
  free energy    TOTEN  =       -37.23499746 eV

  energy without entropy =      -37.23334033  energy(sigma->0) =      -37.23416889


--------------------------------------------------------------------------------------------------------




 average (electrostatic) potential at core
  the test charge radii are     0.6991  0.7215  0.5201  0.9406
  (the norm of the test charge is              1.0000)
       1 -63.0624       2 -62.7858       3 -82.1002       4 -81.7437       5 -44.1655
       6-102.0742       7-102.0820
 
 
 
 E-fermi :  -7.2617     XC(G=0):  -0.8693     alpha+bet : -0.1369


 spin component 1

 k-point     1 :       0.0000    0.0000    0.0000
  band No.  band energies     occupation 
      1     -28.3652      1.00000
      2     -26.2728      1.00000
      3     -23.6360      1.00000
      4     -21.7224      1.00000
      5     -18.2637      1.00000
      6     -14.5828      1.00000
      7     -13.0992      1.00000
      8     -12.8139      1.00000
      9     -12.7568      1.00000
     10     -11.7176      1.00000
     11     -11.1434      1.00000
     12      -9.4987      1.00000
     13      -8.8627      1.00000
     14      -8.5365      1.00000
     15      -8.3429      1.00000
     16      -8.3358      1.00000
     17      -8.2422      1.00000
     18      -7.9288      1.00000
     19      -2.7442      0.00000
     20      -2.3199      0.00000
     21      -1.2578      0.00000
     22      -0.2477      0.00000
     23      -0.1688      0.00000
     24       0.3636      0.00000
     25       0.7324      0.00000
     26       0.9146      0.00000
     27       0.9968      0.00000
     28       1.1379      0.00000

 spin component 2

 k-point     1 :       0.0000    0.0000    0.0000
  band No.  band energies     occupation 
      1     -27.9360      1.00000
      2     -25.7313      1.00000
      3     -23.5609      1.00000
      4     -21.6761      1.00000
      5     -18.0718      1.00000
      6     -14.3889      1.00000
      7     -12.8828      1.00000
      8     -12.6958      1.00000
      9     -12.4959      1.00000
     10     -11.4275      1.00000
     11     -11.0362      1.00000
     12      -9.1980      1.00000
     13      -8.7503      1.00000
     14      -8.3894      1.00000
     15      -8.3052      1.00000
     16      -7.9902      1.00000
     17      -7.2622      0.58150
     18      -7.2613      0.41850
     19      -2.6437      0.00000
     20      -2.2575      0.00000
     21      -1.2319      0.00000
     22      -0.2101      0.00000
     23      -0.1259      0.00000
     24       0.4244      0.00000
     25       0.8273      0.00000
     26       0.9871      0.00000
     27       1.0757      0.00000
     28       1.1929      0.00000


--------------------------------------------------------------------------------------------------------


 soft charge-density along one line, spin component           1
         0         1         2         3         4         5         6         7         8         9
 total charge-density along one line
 
 soft charge-density along one line, spin component           2
         0         1         2         3         4         5         6         7         8         9
 total charge-density along one line
 
 pseudopotential strength for first ion, spin component:           1
 10.502  13.972   0.000  -0.002   0.000  -0.002   0.006  -0.001
 13.972  18.589   0.001  -0.002   0.000  -0.002   0.008  -0.001
  0.000   0.001  -4.617  -0.000  -0.008   9.034   0.000   0.013
 -0.002  -0.002  -0.000  -4.608   0.000   0.000   9.019  -0.000
  0.000   0.000  -0.008   0.000  -4.607   0.013  -0.000   9.019
 -0.002  -0.002   9.034   0.000   0.013 -19.831  -0.000  -0.018
  0.006   0.008   0.000   9.019  -0.000  -0.000 -19.805   0.000
 -0.001  -0.001   0.013  -0.000   9.019  -0.018   0.000 -19.809
 pseudopotential strength for first ion, spin component:           2
 10.508  13.981   0.001  -0.003   0.000  -0.002   0.009  -0.001
 13.981  18.601   0.001  -0.003   0.000  -0.002   0.012  -0.001
  0.001   0.001  -4.621  -0.000  -0.008   9.039   0.000   0.012
 -0.003  -0.003  -0.000  -4.607  -0.000   0.000   9.015   0.000
  0.000   0.000  -0.008  -0.000  -4.611   0.012   0.000   9.025
 -0.002  -0.002   9.039   0.000   0.012 -19.838   0.000  -0.016
  0.009   0.012   0.000   9.015   0.000   0.000 -19.795  -0.000
 -0.001  -0.001   0.012   0.000   9.025  -0.016  -0.000 -19.818
 total augmentation occupancy for first ion, spin component:           1
  8.939  -4.321  -0.005  -0.466   0.005  -0.001  -0.103   0.001
 -4.321   2.284  -0.001   0.325  -0.006   0.001   0.065  -0.001
 -0.005  -0.001   1.773   0.014   0.375   0.188   0.002   0.068
 -0.466   0.325   0.014   1.640  -0.005   0.002   0.148  -0.001
  0.005  -0.006   0.375  -0.005   1.322   0.068  -0.001   0.106
 -0.001   0.001   0.188   0.002   0.068   0.025   0.000   0.012
 -0.103   0.065   0.002   0.148  -0.001   0.000   0.016  -0.000
  0.001  -0.001   0.068  -0.001   0.106   0.012  -0.000   0.011
 total augmentation occupancy for first ion, spin component:           2
  0.043  -0.034  -0.002   0.003  -0.001  -0.000   0.000  -0.000
 -0.034   0.020   0.001   0.005   0.000  -0.000   0.000  -0.000
 -0.002   0.001  -0.016   0.002   0.004   0.001   0.000   0.001
  0.003   0.005   0.002   0.015  -0.000  -0.000   0.001  -0.000
 -0.001   0.000   0.004  -0.000  -0.021   0.001  -0.000   0.000
 -0.000  -0.000   0.001  -0.000   0.001   0.000   0.000   0.000
  0.000   0.000   0.000   0.001  -0.000   0.000   0.000  -0.000
 -0.000  -0.000   0.001  -0.000   0.000   0.000  -0.000   0.000


------------------------ aborting loop because EDIFF is reached ----------------------------------------


    CHARGE:  cpu time    0.1193: real time    0.1204
    FORLOC:  cpu time    0.0383: real time    0.0386
    FORNL :  cpu time    0.3157: real time    0.3180
    STRESS:  cpu time    0.9828: real time    0.9901
    FORCOR:  cpu time    0.6618: real time    0.6663
    FORHAR:  cpu time    0.0984: real time    0.0992
    MIXING:  cpu time    0.0655: real time    0.0658
    OFIELD:  cpu time    0.0001: real time    0.0001

  FORCE on cell =-STRESS in cart. coord.  units (eV):
  Direction    XX          YY          ZZ          XY          YZ          ZX
  --------------------------------------------------------------------------------------
  Alpha Z     3.02097     3.02097     3.02097
  Ewald    2902.32866  3051.66104 -2817.37601   114.58401  -114.53798   -75.34763
  Hartree  3471.37448  3529.58010 -2198.15942    42.22794   -79.40726   -53.50756
  E(xc)    -143.89971  -143.33456  -143.96681     0.45749    -0.12656    -0.07296
  Local   -6939.86529 -7136.34899  4436.69866  -148.06711   188.16835   125.99263
  n-local   110.71099   108.68102   111.26344    -1.70675     0.05170     0.05160
  augment   -26.33207   -28.02260   -27.83174    -1.43618    -0.55236    -0.25578
  Kinetic   621.50193   612.85710   637.54388    -6.71287     6.70172     3.22102
  Fock        0.00000     0.00000     0.00000     0.00000     0.00000     0.00000
  -------------------------------------------------------------------------------------
  Total      -1.16005    -1.90590     1.19297    -0.65347     0.29762     0.08131
  in kB      -1.06827    -1.75511     1.09858    -0.60177     0.27407     0.07488
  external pressure =       -0.57 kB  Pullay stress =        0.00 kB


 VOLUME and BASIS-vectors are now :
 -----------------------------------------------------------------------------
  energy-cutoff  :      544.00
  volume of cell :     1739.83
      direct lattice vectors                 reciprocal lattice vectors
     8.315596000  0.000000000  0.000000000     0.120255962 -0.069429620  0.000000000
     4.157788000  7.201520000  0.000000000     0.000000000  0.138859574  0.000000000
     0.000000000  0.000000000 29.052834000     0.000000000  0.000000000  0.034420050

  length of vectors
     8.315596000  8.315593266 29.052834000     0.138859528  0.138859574  0.034420050


 FORCES acting on ions
    electron-ion (+dipol)            ewald-force                    non-local-force                 convergence-correction
 -----------------------------------------------------------------------------------------------
   -.111E+02 -.159E+02 0.350E+02   0.107E+02 0.153E+02 -.333E+02   0.210E+00 0.291E+00 -.326E+01   0.277E-02 0.536E-02 0.110E-01
   -.280E+02 -.509E+02 -.120E+03   0.310E+02 0.557E+02 0.118E+03   -.305E+01 -.492E+01 0.246E+01   0.575E-04 0.170E-03 0.579E-03
   -.147E+03 -.250E+03 0.260E+03   0.170E+03 0.290E+03 -.282E+03   -.232E+02 -.401E+02 0.219E+02   0.706E-03 0.153E-02 0.378E-02
   0.131E+03 0.242E+03 0.287E+03   -.154E+03 -.282E+03 -.309E+03   0.230E+02 0.414E+02 0.221E+02   0.102E-02 0.178E-02 0.338E-02
   -.361E+02 -.627E+02 -.463E+02   0.389E+02 0.676E+02 0.481E+02   -.285E+01 -.494E+01 -.191E+01   -.431E-03 -.724E-03 0.896E-04
   0.240E+03 -.440E+02 -.217E+03   -.246E+03 0.442E+02 0.219E+03   0.644E+01 -.203E+00 -.204E+01   0.211E-02 0.646E-03 0.277E-02
   -.147E+03 0.185E+03 -.237E+03   0.150E+03 -.190E+03 0.239E+03   -.313E+01 0.547E+01 -.244E+01   -.521E-03 0.215E-02 0.260E-02
 -----------------------------------------------------------------------------------------------
   0.258E+01 0.295E+01 -.369E+02   -.568E-13 0.000E+00 0.568E-13   -.258E+01 -.296E+01 0.369E+02   0.572E-02 0.109E-01 0.242E-01
 
 
 POSITION                                       TOTAL-FORCE (eV/Angst)
 -----------------------------------------------------------------------------------
      4.85477      3.61833      9.51210        -0.143483     -0.314025     -1.527532
      4.84247      3.67353     11.04468        -0.126575     -0.087184      1.347477
      5.43006      4.61309      8.97286        -0.342706     -0.608273      0.266825
      4.30007      2.61711      8.97423         0.452834      0.781292      0.175008
      5.36297      4.57389     11.39524        -0.056138     -0.099394     -0.051062
      3.14854      3.76405     11.60074         0.328525      0.037555     -0.090602
      5.69807      2.25107     11.69544        -0.112458      0.290029     -0.120114
 -----------------------------------------------------------------------------------
    total drift:                                0.000758      0.001540      0.001241


--------------------------------------------------------------------------------------------------------



  FREE ENERGIE OF THE ION-ELECTRON SYSTEM (eV)
  ---------------------------------------------------
  free  energy   TOTEN  =       -37.23499746 eV

  energy  without entropy=      -37.23334033  energy(sigma->0) =      -37.23416889
 


--------------------------------------------------------------------------------------------------------


    POTLOK:  cpu time    0.7266: real time    0.7321


--------------------------------------------------------------------------------------------------------


 stress matrix after NEB project (eV)
     -1.16005     -0.65347      0.08131
     -0.65347     -1.90590      0.29762
      0.08131      0.29762      1.19297
  FORCES: max atom, RMS     1.566063    0.921256
  FORCE total and by dimension    2.437415    1.527532
  Stress total and by dimension    2.728691    1.905901
     LOOP+:  cpu time  139.4503: real time  143.9391
    4ORBIT:  cpu time    0.0000: real time    0.0000

 total amount of memory used by VASP MPI-rank0   118567. kBytes
=======================================================================

   base      :      30000. kBytes
   nonlr-proj:        940. kBytes
   fftplans  :      22218. kBytes
   grid      :      62586. kBytes
   one-center:         12. kBytes
   wavefun   :       2811. kBytes
 
  
  
 General timing and accounting informations for this job:
 ========================================================
  
                  Total CPU time used (sec):      141.407
                            User time (sec):      138.424
                          System time (sec):        2.983
                         Elapsed time (sec):      147.208
  
                   Maximum memory used (kb):      261296.
                   Average memory used (kb):           0.
  
                          Minor page faults:       569345
                          Major page faults:           10
                 Voluntary context switches:         2063
