 vasp.5.4.4.18Apr17-6-g9f103f2a35 (build Sep 01 2024 22:12:51) complex          
  
 executed on             LinuxIFC date 2024.09.23  16:36:14
 running on   16 total cores
 distrk:  each k-point on   16 cores,    1 groups
 distr:  one band on NCORES_PER_BAND=   4 cores,    4 groups


--------------------------------------------------------------------------------------------------------


 INCAR:
 POTCAR:    PAW_PBE C 08Apr2002                   
 POTCAR:    PAW_PBE O 08Apr2002                   
 POTCAR:    PAW_PBE Cl 06Sep2000                  
 POTCAR:    PAW_PBE C 08Apr2002                   
   SHA256 =  253f7b50bb8d59471dbedb8285d89021f4a42ed1a2c5d38a03a736e69125dd95 C/
   COPYR  = (c) Copyright 08Apr2002 Georg Kresse                                
   COPYR  = This file is part of the software VASP. Any use, copying, and all ot
   COPYR  = If you do not have a valid VASP license, you may not use, copy or di
   VRHFIN =C: s2p2                                                              
   LEXCH  = PE                                                                  
   EATOM  =   147.1560 eV,   10.8157 Ry                                         
                                                                                
   TITEL  = PAW_PBE C 08Apr2002                                                 
   LULTRA =        F    use ultrasoft PP ?                                      
   IUNSCR =        1    unscreen: 0-lin 1-nonlin 2-no                           
   RPACOR =    1.200    partial core radius                                     
   POMASS =   12.011; ZVAL   =    4.000    mass and valenz                      
   RCORE  =    1.500    outmost cutoff radius                                   
   RWIGS  =    1.630; RWIGS  =    0.863    wigner-seitz radius (au A)           
   ENMAX  =  400.000; ENMIN  =  300.000 eV                                      
   ICORE  =        2    local potential                                         
   LCOR   =        T    correct aug charges                                     
   LPAW   =        T    paw PP                                                  
   EAUG   =  644.873                                                            
   DEXC   =    0.000                                                            
   RMAX   =    1.529    core radius for proj-oper                               
   RAUG   =    1.300    factor for augmentation sphere                          
   RDEP   =    1.501    radius for radial grids                                 
   RDEPT  =    1.300    core radius for aug-charge                              
                                                                                
   Atomic configuration                                                         
    4 entries                                                                   
     n  l   j            E        occ.                                          
     1  0  0.50      -273.3789   2.0000                                         
     2  0  0.50       -13.7508   2.0000                                         
     2  1  0.50        -5.2854   2.0000                                         
     3  2  1.50        -5.4423   0.0000                                         
   Description                                                                  
     l       E           TYP  RCUT    TYP  RCUT                                 
     0    -13.7508458     23  1.200                                             
     0     -8.2022199     23  1.200                                             
     1     -5.2854383     23  1.500                                             
     1     34.0145650     23  1.500                                             
     2     -5.4423304      7  1.500                                             
  local pseudopotential read in
  partial core-charges read in
  partial kinetic energy density read in
  atomic valenz-charges read in
  non local Contribution for L=           0  read in
    real space projection operators read in
  non local Contribution for L=           0  read in
    real space projection operators read in
  non local Contribution for L=           1  read in
    real space projection operators read in
  non local Contribution for L=           1  read in
    real space projection operators read in
    PAW grid and wavefunctions read in
 
   number of l-projection  operators is LMAX  =           4
   number of lm-projection operators is LMMAX =           8
 
 POTCAR:    PAW_PBE O 08Apr2002                   
   SHA256 =  818f92134a0a090dccd8ba1447fa70422a3b330e708bb4f08108d8ae51209ddf O/
   COPYR  = (c) Copyright 08Apr2002 Georg Kresse                                
   COPYR  = This file is part of the software VASP. Any use, copying, and all ot
   COPYR  = If you do not have a valid VASP license, you may not use, copy or di
   VRHFIN =O: s2p4                                                              
   LEXCH  = PE                                                                  
   EATOM  =   432.3788 eV,   31.7789 Ry                                         
                                                                                
   TITEL  = PAW_PBE O 08Apr2002                                                 
   LULTRA =        F    use ultrasoft PP ?                                      
   IUNSCR =        1    unscreen: 0-lin 1-nonlin 2-no                           
   RPACOR =    1.200    partial core radius                                     
   POMASS =   16.000; ZVAL   =    6.000    mass and valenz                      
   RCORE  =    1.520    outmost cutoff radius                                   
   RWIGS  =    1.550; RWIGS  =    0.820    wigner-seitz radius (au A)           
   ENMAX  =  400.000; ENMIN  =  300.000 eV                                      
   ICORE  =        2    local potential                                         
   LCOR   =        T    correct aug charges                                     
   LPAW   =        T    paw PP                                                  
   EAUG   =  605.392                                                            
   DEXC   =    0.000                                                            
   RMAX   =    1.553    core radius for proj-oper                               
   RAUG   =    1.300    factor for augmentation sphere                          
   RDEP   =    1.550    radius for radial grids                                 
   RDEPT  =    1.329    core radius for aug-charge                              
                                                                                
   Atomic configuration                                                         
    4 entries                                                                   
     n  l   j            E        occ.                                          
     1  0  0.50      -514.6923   2.0000                                         
     2  0  0.50       -23.9615   2.0000                                         
     2  1  0.50        -9.0305   4.0000                                         
     3  2  1.50        -9.5241   0.0000                                         
   Description                                                                  
     l       E           TYP  RCUT    TYP  RCUT                                 
     0    -23.9615318     23  1.200                                             
     0     -9.5240782     23  1.200                                             
     1     -9.0304911     23  1.520                                             
     1      8.1634956     23  1.520                                             
     2     -9.5240782      7  1.500                                             
  local pseudopotential read in
  partial core-charges read in
  partial kinetic energy density read in
  kinetic energy density of atom read in
  atomic valenz-charges read in
  non local Contribution for L=           0  read in
    real space projection operators read in
  non local Contribution for L=           0  read in
    real space projection operators read in
  non local Contribution for L=           1  read in
    real space projection operators read in
  non local Contribution for L=           1  read in
    real space projection operators read in
    PAW grid and wavefunctions read in
 
   number of l-projection  operators is LMAX  =           4
   number of lm-projection operators is LMMAX =           8
 
 POTCAR:    PAW_PBE Cl 06Sep2000                  
   SHA256 =  9f1b6e6ed4247ac726a768b330d26d7667cc3c95a39ff49c1d064c2d9dcce931 Cl
   COPYR  = (c) Copyright 06Sep2000 Georg Kresse                                
   COPYR  = This file is part of the software VASP. Any use, copying, and all ot
   COPYR  = If you do not have a valid VASP license, you may not use, copy or di
   VRHFIN =Cl: s2p5                                                             
   LEXCH  = PE                                                                  
   EATOM  =   409.7259 eV,   30.1140 Ry                                         
                                                                                
   TITEL  = PAW_PBE Cl 06Sep2000                                                
   LULTRA =        F    use ultrasoft PP ?                                      
   IUNSCR =        1    unscreen: 0-lin 1-nonlin 2-no                           
   RPACOR =    1.500    partial core radius                                     
   POMASS =   35.453; ZVAL   =    7.000    mass and valenz                      
   RCORE  =    1.900    outmost cutoff radius                                   
   RWIGS  =    2.100; RWIGS  =    1.111    wigner-seitz radius (au A)           
   ENMAX  =  262.472; ENMIN  =  196.854 eV                                      
   ICORE  =        2    local potential                                         
   LCOR   =        T    correct aug charges                                     
   LPAW   =        T    paw PP                                                  
   EAUG   =  356.192                                                            
   DEXC   =    0.000                                                            
   RMAX   =    1.945    core radius for proj-oper                               
   RAUG   =    1.300    factor for augmentation sphere                          
   RDEP   =    2.020    radius for radial grids                                 
   RDEPT  =    1.678    core radius for aug-charge                              
                                                                                
   Atomic configuration                                                         
    6 entries                                                                   
     n  l   j            E        occ.                                          
     1  0  0.50     -2751.1850   2.0000                                         
     2  0  0.50      -252.6861   2.0000                                         
     2  1  1.50      -191.6157   6.0000                                         
     3  0  0.50       -20.6916   2.0000                                         
     3  1  0.50        -8.5949   5.0000                                         
     3  2  1.50        -8.1635   0.0000                                         
   Description                                                                  
     l       E           TYP  RCUT    TYP  RCUT                                 
     0    -20.6915656     23  1.900                                             
     0    -22.0521482     23  1.900                                             
     1     -8.5948577     23  1.900                                             
     1     -5.3847331     23  1.900                                             
     2     -8.1634956     23  1.900                                             
  local pseudopotential read in
  partial core-charges read in
  partial kinetic energy density read in
  atomic valenz-charges read in
  non local Contribution for L=           0  read in
    real space projection operators read in
  non local Contribution for L=           0  read in
    real space projection operators read in
  non local Contribution for L=           1  read in
    real space projection operators read in
  non local Contribution for L=           1  read in
    real space projection operators read in
    PAW grid and wavefunctions read in
 
   number of l-projection  operators is LMAX  =           4
   number of lm-projection operators is LMMAX =           8
 

 ----------------------------------------------------------------------------- 
|                                                                             |
|  ADVICE TO THIS USER RUNNING 'VASP/VAMP'   (HEAR YOUR MASTER'S VOICE ...):  |
|                                                                             |
|      You have a (more or less) 'small supercell' and for smaller cells      |
|      it is recommended  to use the reciprocal-space projection scheme!      |
|      The real space optimization is not  efficient for small cells and it   |
|      is also less accurate ...                                              |
|      Therefore set LREAL=.FALSE. in the  INCAR file                         |
|                                                                             |
 ----------------------------------------------------------------------------- 

 Optimization of the real space projectors (new method)

 maximal supplied QI-value         = 25.13
 optimisation between [QCUT,QGAM] = [ 11.81, 23.88] = [ 39.08,159.64] Ry 
 Optimized for a Real-space Cutoff    1.18 Angstroem

   l    n(q)    QCUT    max X(q) W(low)/X(q) W(high)/X(q)  e(spline) 
   0      8    11.813   115.676    0.10E-03    0.13E-03    0.36E-06
   0      8    11.813    87.132    0.10E-03    0.13E-03    0.36E-06
   1      8    11.813     4.429    0.14E-03    0.13E-04    0.22E-06
   1      8    11.813     2.733    0.11E-03    0.10E-04    0.18E-06
 Optimization of the real space projectors (new method)

 maximal supplied QI-value         = 24.76
 optimisation between [QCUT,QGAM] = [ 11.88, 23.77] = [ 39.54,158.16] Ry 
 Optimized for a Real-space Cutoff    1.18 Angstroem

   l    n(q)    QCUT    max X(q) W(low)/X(q) W(high)/X(q)  e(spline) 
   0      8    11.883    20.381    0.77E-04    0.16E-03    0.31E-06
   0      8    11.883    15.268    0.85E-04    0.17E-03    0.34E-06
   1      8    11.883     5.964    0.17E-03    0.30E-04    0.33E-06
   1      8    11.883     5.382    0.15E-03    0.14E-04    0.29E-06
 Optimization of the real space projectors (new method)

 maximal supplied QI-value         = 19.84
 optimisation between [QCUT,QGAM] = [ 11.91, 23.81] = [ 39.69,158.76] Ry 
 Optimized for a Real-space Cutoff    1.22 Angstroem

   l    n(q)    QCUT    max X(q) W(low)/X(q) W(high)/X(q)  e(spline) 
   0      9    11.905   168.010    0.10E-03    0.11E-03    0.59E-07
   0      9    11.905   164.674    0.98E-04    0.11E-03    0.58E-07
   1      8    11.905    69.222    0.15E-03    0.56E-04    0.91E-07
   1      8    11.905    56.786    0.15E-03    0.56E-04    0.89E-07
  PAW_PBE C 08Apr2002                   :
 energy of atom  1       EATOM= -147.1560
 kinetic energy error for atom=    0.0067 (will be added to EATOM!!)
  PAW_PBE O 08Apr2002                   :
 energy of atom  2       EATOM= -432.3788
 kinetic energy error for atom=    0.0196 (will be added to EATOM!!)
  PAW_PBE Cl 06Sep2000                  :
 energy of atom  3       EATOM= -409.7259
 kinetic energy error for atom=    0.0018 (will be added to EATOM!!)
 
 
 POSCAR:  C  O Cl                                
  positions in cartesian coordinates
  No initial velocities read in
 exchange correlation table for  LEXCH =        8
   RHO(1)=    0.500       N(1)  =     2000
   RHO(2)=  100.500       N(2)  =     4000

 VTST: version 3.2, (02/03/18)

 CHAIN: initializing optimizer
 
 OPT: Using VASP Dynamics algorithm
 CHAIN: Read ICHAIN            0
 
 POSCAR:  C  O Cl                                
  positions in cartesian coordinates
  No initial velocities read in
 


--------------------------------------------------------------------------------------------------------


 ion  position               nearest neighbor table
   1  0.333  0.501  0.327-   3 1.26   4 1.26   2 1.56
   2  0.327  0.501  0.381-   1 1.56   5 1.77   7 1.79   6 1.79
   3  0.333  0.639  0.309-   1 1.26
   4  0.335  0.362  0.309-   1 1.26
   5  0.327  0.697  0.405-   2 1.77
   6  0.119  0.503  0.397-   2 1.79
   7  0.527  0.294  0.400-   2 1.79
 

IMPORTANT INFORMATION: All symmetrisations will be switched off!
NOSYMM: (Re-)initialisation of all symmetry stuff for point group C_1.

 
 
 KPOINTS: K-Point Grid                            

Automatic generation of k-mesh.
Space group operators:
 irot       det(A)        alpha          n_x          n_y          n_z        tau_x        tau_y        tau_z
    1     1.000000     0.000000     1.000000     0.000000     0.000000     0.000000     0.000000     0.000000
 
 Subroutine IBZKPT returns following result:
 ===========================================
 
 Found      1 irreducible k-points:
 
 Following reciprocal coordinates:
            Coordinates               Weight
  0.000000  0.000000  0.000000      1.000000
 
 Following cartesian coordinates:
            Coordinates               Weight
  0.000000  0.000000  0.000000      1.000000
 


--------------------------------------------------------------------------------------------------------




 Dimension of arrays:
   k-points           NKPTS =      1   k-points in BZ     NKDIM =      1   number of bands    NBANDS=     28
   number of dos      NEDOS =    301   number of ions     NIONS =      7
   non local maximal  LDIM  =      4   non local SUM 2l+1 LMDIM =      8
   total plane-waves  NPLWV = 917504
   max r-space proj   IRMAX =   4054   max aug-charges    IRDMAX=  15358
   dimension x,y,z NGX =    64 NGY =   64 NGZ =  224
   dimension x,y,z NGXF=   128 NGYF=  128 NGZF=  448
   support grid    NGXF=   128 NGYF=  128 NGZF=  448
   ions per type =               2   2   3
   NGX,Y,Z   is equivalent  to a cutoff of  12.79, 12.79, 12.82 a.u.
   NGXF,Y,Z  is equivalent  to a cutoff of  25.59, 25.59, 25.64 a.u.

 SYSTEM =  DIPOLE RUNS                             
 POSCAR =   C  O Cl                                

 Startparameter for this run:
   NWRITE =      2    write-flag & timer
   PREC   = accura    normal or accurate (medium, high low for compatibility)
   ISTART =      0    job   : 0-new  1-cont  2-samecut
   ICHARG =      2    charge: 1-file 2-atom 10-const
   ISPIN  =      2    spin polarized calculation?
   LNONCOLLINEAR =      F non collinear calculations
   LSORBIT =      F    spin-orbit coupling
   INIWAV =      1    electr: 0-lowe 1-rand  2-diag
   LASPH  =      F    aspherical Exc in radial PAW
   METAGGA=      F    non-selfconsistent MetaGGA calc.

 Electronic Relaxation 1
   ENCUT  =  544.0 eV  39.98 Ry    6.32 a.u.  15.81 15.81 55.25*2*pi/ulx,y,z
   ENINI  =  544.0     initial cutoff
   ENAUG  =  644.9 eV  augmentation charge cutoff
   NELM   =    400;   NELMIN=  2; NELMDL= -5     # of ELM steps 
   EDIFF  = 0.1E-04   stopping-criterion for ELM
   LREAL  =      T    real-space projection
   NLSPLINE    = F    spline interpolate recip. space projectors
   LCOMPAT=      F    compatible to vasp.4.4
   GGA_COMPAT  = T    GGA compatible to vasp.4.4-vasp.4.6
   LMAXPAW     = -100 max onsite density
   LMAXMIX     =    2 max onsite mixed and CHGCAR
   VOSKOWN=      0    Vosko Wilk Nusair interpolation
   ROPT   =   -0.00025  -0.00025  -0.00025
 Ionic relaxation
   EDIFFG = -.1E-01   stopping-criterion for IOM
   NSW    =      0    number of steps for IOM
   NBLOCK =      1;   KBLOCK =      1    inner block; outer block 
   IBRION =     -1    ionic relax: 0-MD 1-quasi-New 2-CG
   NFREE  =      0    steps in history (QN), initial steepest desc. (CG)
   ISIF   =      2    stress and relaxation
   IWAVPR =     10    prediction:  0-non 1-charg 2-wave 3-comb
   ISYM   =      0    0-nonsym 1-usesym 2-fastsym
   LCORR  =      T    Harris-Foulkes like correction to forces

   POTIM  = 0.5000    time-step for ionic-motion
   TEIN   =    0.0    initial temperature
   TEBEG  =    0.0;   TEEND  =   0.0 temperature during run
   SMASS  =  -3.00    Nose mass-parameter (am)
   estimated Nose-frequenzy (Omega)   =  0.10E-29 period in steps =****** mass=  -0.158E-26a.u.
   SCALEE = 1.0000    scale energy and forces
   NPACO  =    256;   APACO  = 16.0  distance and # of slots for P.C.
   PSTRESS=    0.0 pullay stress

  Mass of Ions in am
   POMASS =  12.01 16.00 35.45
  Ionic Valenz
   ZVAL   =   4.00  6.00  7.00
  Atomic Wigner-Seitz radii
   RWIGS  =  -1.00 -1.00 -1.00
  virtual crystal weights 
   VCA    =   1.00  1.00  1.00
   NELECT =      41.0000    total number of electrons
   NUPDOWN=      -1.0000    fix difference up-down

 DOS related values:
   EMIN   =  10.00;   EMAX   =-10.00  energy-range for DOS
   EFERMI =   0.00
   ISMEAR =     0;   SIGMA  =   0.00  broadening in eV -4-tet -1-fermi 0-gaus

 Electronic relaxation 2 (details)
   IALGO  =     68    algorithm
   LDIAG  =      T    sub-space diagonalisation (order eigenvalues)
   LSUBROT=      F    optimize rotation matrix (better conditioning)
   TURBO    =      0    0=normal 1=particle mesh
   IRESTART =      0    0=no restart 2=restart with 2 vectors
   NREBOOT  =      0    no. of reboots
   NMIN     =      0    reboot dimension
   EREF     =   0.00    reference energy to select bands
   IMIX   =      4    mixing-type and parameters
     AMIX     =   0.40;   BMIX     =  1.00
     AMIX_MAG =   1.60;   BMIX_MAG =  1.00
     AMIN     =   0.10
     WC   =   100.;   INIMIX=   1;  MIXPRE=   1;  MAXMIX= -45

 Intra band minimization:
   WEIMIN = 0.0000     energy-eigenvalue tresh-hold
   EBREAK =  0.89E-07  absolut break condition
   DEPER  =   0.30     relativ break condition  

   TIME   =   0.40     timestep for ELM

  volume/ion in A,a.u.               =     248.55      1677.28
  Fermi-wavevector in a.u.,A,eV,Ry     =   0.469354  0.886951  2.997274  0.220293
  Thomas-Fermi vector in A             =   1.460845
 
 Write flags
   LWAVE        =      F    write WAVECAR
   LDOWNSAMPLE  =      F    k-point downsampling of WAVECAR
   LCHARG       =      F    write CHGCAR
   LVTOT        =      F    write LOCPOT, total local potential
   LVHAR        =      F    write LOCPOT, Hartree potential only
   LELF         =      F    write electronic localiz. function (ELF)
   LORBIT       =      0    0 simple, 1 ext, 2 COOP (PROOUT), +10 PAW based schemes


 Dipole corrections
   LMONO  =      F    monopole corrections only (constant potential shift)
   LDIPOL =      T    correct potential (dipole corrections)
   IDIPOL =      3    1-x, 2-y, 3-z, 4-all directions 
   EPSILON=  1.0000000 bulk dielectric constant

 Exchange correlation treatment:
   GGA     =    PE    GGA type
   LEXCH   =     8    internal setting for exchange type
   VOSKOWN=      0    Vosko Wilk Nusair interpolation
   LHFCALC =     F    Hartree Fock is set to
   LHFONE  =     F    Hartree Fock one center treatment
   AEXX    =    0.0000 exact exchange contribution

 Linear response parameters
   LEPSILON=     F    determine dielectric tensor
   LRPA    =     F    only Hartree local field effects (RPA)
   LNABLA  =     F    use nabla operator in PAW spheres
   LVEL    =     F    velocity operator in full k-point grid
   LINTERFAST=   F  fast interpolation
   KINTER  =     0    interpolate to denser k-point grid
   CSHIFT  =0.1000    complex shift for real part using Kramers Kronig
   OMEGAMAX=  -1.0    maximum frequency
   DEG_THRESHOLD= 0.2000000E-02 threshold for treating states as degnerate
   RTIME   =   -0.100 relaxation time in fs
  (WPLASMAI=    0.000 imaginary part of plasma frequency in eV, 0.658/RTIME)
   DFIELD  = 0.0000000 0.0000000 0.0000000 field for delta impulse in time
 
 Orbital magnetization related:
   ORBITALMAG=     F  switch on orbital magnetization
   LCHIMAG   =     F  perturbation theory with respect to B field
   DQ        =  0.001000  dq finite difference perturbation B field
   LLRAUG    =     F  two centre corrections for induced B field



--------------------------------------------------------------------------------------------------------


 Static calculation
 charge density and potential will be updated during run
 spin polarized calculation
 RMM-DIIS sequential band-by-band and
  variant of blocked Davidson during initial phase
 perform sub-space diagonalisation
    before iterative eigenvector-optimisation
 modified Broyden-mixing scheme, WC =      100.0
 initial mixing is a Kerker type mixing with AMIX =  0.4000 and BMIX =      1.0000
 Hartree-type preconditioning will be used
 using additional bands            7
 real space projection scheme for non local part
 use partial core corrections
 calculate Harris-corrections to forces 
   (improved forces if not selfconsistent)
 use gradient corrections 
 use of overlap-Matrix (Vanderbilt PP)
 Gauss-broadening in eV      SIGMA  =   0.00


--------------------------------------------------------------------------------------------------------


  energy-cutoff  :      544.00
  volume of cell :     1739.83
      direct lattice vectors                 reciprocal lattice vectors
     8.315596000  0.000000000  0.000000000     0.120255962 -0.069429620  0.000000000
     4.157788000  7.201520000  0.000000000     0.000000000  0.138859574  0.000000000
     0.000000000  0.000000000 29.052834000     0.000000000  0.000000000  0.034420050

  length of vectors
     8.315596000  8.315593266 29.052834000     0.138859528  0.138859574  0.034420050


 
 k-points in units of 2pi/SCALE and weight: K-Point Grid                            
   0.00000000  0.00000000  0.00000000       1.000
 
 k-points in reciprocal lattice and weights: K-Point Grid                            
   0.00000000  0.00000000  0.00000000       1.000
 
 position of ions in fractional coordinates (direct lattice) 
   0.33261638  0.50138068  0.32705026
   0.32716745  0.50101992  0.38086384
   0.33287851  0.63870544  0.30872417
   0.33523693  0.36210314  0.30887252
   0.32743839  0.69737097  0.40463946
   0.11855159  0.50324737  0.39718838
   0.52745118  0.29371966  0.40031176
 
 position of ions in cartesian coordinates  (Angst):
   4.85053800  3.61070300  9.50173700
   4.80372700  3.60810500 11.06517400
   5.42368500  4.59965000  8.96931200
   4.29324300  2.60769300  8.97362200
   5.62236600  5.02213100 11.75592300
   3.07822300  3.62414600 11.53944800
   5.60729500  2.11522800 11.63019100
 


--------------------------------------------------------------------------------------------------------


 k-point  1 :   0.0000 0.0000 0.0000  plane waves:   50139

 maximum and minimum number of plane-waves per node :     12536    12533

 maximum number of plane-waves:     50139
 maximum index in each direction: 
   IXMAX=   15   IYMAX=   15   IZMAX=   55
   IXMIN=  -15   IYMIN=  -15   IZMIN=  -55


 real space projection operators:
  total allocation   :       1617.62 KBytes
  max/ min on nodes  :        407.06        400.06


 parallel 3D FFT for wavefunctions:
    minimum data exchange during FFTs selected (reduces bandwidth)
 parallel 3D FFT for charge:
    minimum data exchange during FFTs selected (reduces bandwidth)


 total amount of memory used by VASP MPI-rank0   114916. kBytes
=======================================================================

   base      :      30000. kBytes
   nonlr-proj:        975. kBytes
   fftplans  :      22218. kBytes
   grid      :      58900. kBytes
   one-center:         12. kBytes
   wavefun   :       2811. kBytes
 
     INWAV:  cpu time    0.0001: real time    0.0003
 Broyden mixing: mesh for mixing (old mesh)
   NGX = 31   NGY = 31   NGZ =111
  (NGX  =128   NGY  =128   NGZ  =448)
  gives a total of 106671 points

 initial charge density was supplied:
 charge density of overlapping atoms calculated
 number of electron      41.0000000 magnetization       7.0000000
 keeping initial charge density in first step


--------------------------------------------------------------------------------------------------------


 Maximum index for non-local projection operator          979
 Maximum index for augmentation-charges          997 (set IRDMAX)


--------------------------------------------------------------------------------------------------------


 First call to EWALD:  gamma=   0.147
 Maximum number of real-space cells 4x 4x 1
 Maximum number of reciprocal cells 2x 2x 6

    FEWALD:  cpu time    0.0014: real time    0.0014


--------------------------------------- Iteration      1(   1)  ---------------------------------------


    POTLOK:  cpu time    0.7293: real time    0.7368
    SETDIJ:  cpu time    0.0091: real time    0.0091
     EDDAV:  cpu time    1.1585: real time    1.1700
       DOS:  cpu time    0.0010: real time    0.0010
    --------------------------------------------
      LOOP:  cpu time    1.8979: real time    1.9169

 eigenvalue-minimisations  :   136
 total energy-change (2. order) : 0.4025590E+03  (-0.1104515E+04)
 number of electron      41.0000000 magnetization       7.0000000
 augmentation part       41.0000000 magnetization       7.0000000

 DIPCOR: dipole corrections for dipol
 direction  3 min pos   269,
 dipolmoment           0.000000      0.000000     -0.000288 electrons x Angstroem
 Tr[quadrupol]      -765.034079

 energy correction for charged system         0.000000 eV
 dipol+quadrupol energy correction           -0.000000 eV
 added-field ion interaction          0.009516 eV  (added to PSCEN)


 Free energy of the ion-electron system (eV)
  ---------------------------------------------------
  alpha Z        PSCENC =         4.20196444
  Ewald energy   TEWEN  =      4173.70774374
  -Hartree energ DENC   =     -6137.47459042
  -exchange      EXHF   =         0.00000000
  -V(xc)+E(xc)   XCENC  =       141.75871239
  PAW double counting   =      1885.17010581    -1890.21049777
  entropy T*S    EENTRO =        -0.00000000
  eigenvalues    EBANDS =      -162.78380169
  atomic energy  EATOM  =      2388.18935845
  Solvation  Ecorr_sol  =         0.00000000
  ---------------------------------------------------
  free energy    TOTEN  =       402.55899495 eV

  energy without entropy =      402.55899495  energy(sigma->0) =      402.55899495


--------------------------------------------------------------------------------------------------------




--------------------------------------- Iteration      1(   2)  ---------------------------------------


     EDDAV:  cpu time    1.5049: real time    1.5168
       DOS:  cpu time    0.0002: real time    0.0002
    --------------------------------------------
      LOOP:  cpu time    1.5051: real time    1.5170

 eigenvalue-minimisations  :   192
 total energy-change (2. order) :-0.2895057E+03  (-0.2786237E+03)
 number of electron      41.0000000 magnetization       7.0000000
 augmentation part       41.0000000 magnetization       7.0000000

 DIPCOR: dipole corrections for dipol
 direction  3 min pos   269,
 dipolmoment           0.000000      0.000000     -0.000288 electrons x Angstroem
 Tr[quadrupol]      -765.034079

 energy correction for charged system         0.000000 eV
 dipol+quadrupol energy correction           -0.000000 eV
 added-field ion interaction          0.009516 eV  (added to PSCEN)


 Free energy of the ion-electron system (eV)
  ---------------------------------------------------
  alpha Z        PSCENC =         4.20196444
  Ewald energy   TEWEN  =      4173.70774374
  -Hartree energ DENC   =     -6137.47459042
  -exchange      EXHF   =         0.00000000
  -V(xc)+E(xc)   XCENC  =       141.75871239
  PAW double counting   =      1885.17010581    -1890.21049777
  entropy T*S    EENTRO =        -0.00000000
  eigenvalues    EBANDS =      -452.28946181
  atomic energy  EATOM  =      2388.18935845
  Solvation  Ecorr_sol  =         0.00000000
  ---------------------------------------------------
  free energy    TOTEN  =       113.05333482 eV

  energy without entropy =      113.05333482  energy(sigma->0) =      113.05333482


--------------------------------------------------------------------------------------------------------




--------------------------------------- Iteration      1(   3)  ---------------------------------------


     EDDAV:  cpu time    1.2364: real time    1.2465
       DOS:  cpu time    0.0001: real time    0.0001
    --------------------------------------------
      LOOP:  cpu time    1.2365: real time    1.2467

 eigenvalue-minimisations  :   152
 total energy-change (2. order) :-0.1386520E+03  (-0.1382469E+03)
 number of electron      41.0000000 magnetization       7.0000000
 augmentation part       41.0000000 magnetization       7.0000000

 DIPCOR: dipole corrections for dipol
 direction  3 min pos   269,
 dipolmoment           0.000000      0.000000     -0.000288 electrons x Angstroem
 Tr[quadrupol]      -765.034079

 energy correction for charged system         0.000000 eV
 dipol+quadrupol energy correction           -0.000000 eV
 added-field ion interaction          0.009516 eV  (added to PSCEN)


 Free energy of the ion-electron system (eV)
  ---------------------------------------------------
  alpha Z        PSCENC =         4.20196444
  Ewald energy   TEWEN  =      4173.70774374
  -Hartree energ DENC   =     -6137.47459042
  -exchange      EXHF   =         0.00000000
  -V(xc)+E(xc)   XCENC  =       141.75871239
  PAW double counting   =      1885.17010581    -1890.21049777
  entropy T*S    EENTRO =        -0.00000000
  eigenvalues    EBANDS =      -590.94142001
  atomic energy  EATOM  =      2388.18935845
  Solvation  Ecorr_sol  =         0.00000000
  ---------------------------------------------------
  free energy    TOTEN  =       -25.59862338 eV

  energy without entropy =      -25.59862338  energy(sigma->0) =      -25.59862338


--------------------------------------------------------------------------------------------------------




--------------------------------------- Iteration      1(   4)  ---------------------------------------


     EDDAV:  cpu time    1.2822: real time    1.2942
       DOS:  cpu time    0.0001: real time    0.0001
    --------------------------------------------
      LOOP:  cpu time    1.2824: real time    1.2943

 eigenvalue-minimisations  :   156
 total energy-change (2. order) :-0.1095462E+02  (-0.1090405E+02)
 number of electron      41.0000000 magnetization       7.0000000
 augmentation part       41.0000000 magnetization       7.0000000

 DIPCOR: dipole corrections for dipol
 direction  3 min pos   269,
 dipolmoment           0.000000      0.000000     -0.000288 electrons x Angstroem
 Tr[quadrupol]      -765.034079

 energy correction for charged system         0.000000 eV
 dipol+quadrupol energy correction           -0.000000 eV
 added-field ion interaction          0.009516 eV  (added to PSCEN)


 Free energy of the ion-electron system (eV)
  ---------------------------------------------------
  alpha Z        PSCENC =         4.20196444
  Ewald energy   TEWEN  =      4173.70774374
  -Hartree energ DENC   =     -6137.47459042
  -exchange      EXHF   =         0.00000000
  -V(xc)+E(xc)   XCENC  =       141.75871239
  PAW double counting   =      1885.17010581    -1890.21049777
  entropy T*S    EENTRO =        -0.00000000
  eigenvalues    EBANDS =      -601.89604430
  atomic energy  EATOM  =      2388.18935845
  Solvation  Ecorr_sol  =         0.00000000
  ---------------------------------------------------
  free energy    TOTEN  =       -36.55324767 eV

  energy without entropy =      -36.55324767  energy(sigma->0) =      -36.55324767


--------------------------------------------------------------------------------------------------------




--------------------------------------- Iteration      1(   5)  ---------------------------------------


     EDDAV:  cpu time    1.1417: real time    1.1510
       DOS:  cpu time    0.0007: real time    0.2580
    CHARGE:  cpu time    0.1275: real time    0.1289
    MIXING:  cpu time    0.0187: real time    0.0187
    --------------------------------------------
      LOOP:  cpu time    1.2887: real time    1.5567

 eigenvalue-minimisations  :   132
 total energy-change (2. order) :-0.1204373E+00  (-0.1199339E+00)
 number of electron      40.9999999 magnetization       6.5710546
 augmentation part       -1.1586952 magnetization       5.5436738

 DIPCOR: dipole corrections for dipol
 direction  3 min pos   269,
 dipolmoment           0.000000      0.000000     -0.000288 electrons x Angstroem
 Tr[quadrupol]      -765.034079

 energy correction for charged system         0.000000 eV
 dipol+quadrupol energy correction           -0.000000 eV
 added-field ion interaction          0.009516 eV  (added to PSCEN)


 Broyden mixing:
  rms(total) = 0.22548E+01    rms(broyden)= 0.22545E+01
  rms(prec ) = 0.22872E+01
  weight for this iteration     100.00

 Free energy of the ion-electron system (eV)
  ---------------------------------------------------
  alpha Z        PSCENC =         4.20196444
  Ewald energy   TEWEN  =      4173.70774374
  -Hartree energ DENC   =     -6137.47459042
  -exchange      EXHF   =         0.00000000
  -V(xc)+E(xc)   XCENC  =       141.75871239
  PAW double counting   =      1885.17010581    -1890.21049777
  entropy T*S    EENTRO =        -0.00000000
  eigenvalues    EBANDS =      -602.01648155
  atomic energy  EATOM  =      2388.18935845
  Solvation  Ecorr_sol  =         0.00000000
  ---------------------------------------------------
  free energy    TOTEN  =       -36.67368492 eV

  energy without entropy =      -36.67368492  energy(sigma->0) =      -36.67368492


--------------------------------------------------------------------------------------------------------




--------------------------------------- Iteration      1(   6)  ---------------------------------------


    POTLOK:  cpu time    0.6935: real time    0.6991
    SETDIJ:  cpu time    0.0069: real time    0.0070
    EDDIAG:  cpu time    0.1944: real time    0.1959
  RMM-DIIS:  cpu time    0.7336: real time    0.7388
    ORTHCH:  cpu time    0.0179: real time    0.0180
       DOS:  cpu time    0.0005: real time    0.0005
    CHARGE:  cpu time    0.1290: real time    0.1299
    MIXING:  cpu time    0.0158: real time    0.0159
    --------------------------------------------
      LOOP:  cpu time    1.7916: real time    1.8051

 eigenvalue-minimisations  :   128
 total energy-change (2. order) : 0.1667325E+02  (-0.3198913E+01)
 number of electron      41.0000000 magnetization       6.2427620
 augmentation part       -1.6456038 magnetization       5.3942960

 DIPCOR: dipole corrections for dipol
 direction  3 min pos   269,
 dipolmoment           0.000000      0.000000     -0.202784 electrons x Angstroem
 Tr[quadrupol]      -769.428023

 energy correction for charged system         0.000000 eV
 dipol+quadrupol energy correction           -0.002138 eV
 added-field ion interaction          6.694522 eV  (added to PSCEN)


 Broyden mixing:
  rms(total) = 0.13668E+01    rms(broyden)= 0.13664E+01
  rms(prec ) = 0.13765E+01
  weight for this iteration     100.00

 eigenvalues of (default mixing * dielectric matrix)
  average eigenvalue GAMMA=   0.7148
  0.7148

 Free energy of the ion-electron system (eV)
  ---------------------------------------------------
  alpha Z        PSCENC =        10.88483192
  Ewald energy   TEWEN  =      4173.70774374
  -Hartree energ DENC   =     -6173.99623674
  -exchange      EXHF   =         0.00000000
  -V(xc)+E(xc)   XCENC  =       154.87811490
  PAW double counting   =      2426.86315071    -2432.50037765
  entropy T*S    EENTRO =        -0.00000000
  eigenvalues    EBANDS =      -568.02701675
  atomic energy  EATOM  =      2388.18935845
  Solvation  Ecorr_sol  =         0.00000000
  ---------------------------------------------------
  free energy    TOTEN  =       -20.00043143 eV

  energy without entropy =      -20.00043143  energy(sigma->0) =      -20.00043143


--------------------------------------------------------------------------------------------------------




--------------------------------------- Iteration      1(   7)  ---------------------------------------


    POTLOK:  cpu time    0.7011: real time    0.7074
    SETDIJ:  cpu time    0.0104: real time    0.0105
    EDDIAG:  cpu time    0.2210: real time    0.2226
  RMM-DIIS:  cpu time    0.7225: real time    0.7277
    ORTHCH:  cpu time    0.0182: real time    0.0184
       DOS:  cpu time    0.0002: real time    0.0002
    CHARGE:  cpu time    0.1239: real time    0.1249
    MIXING:  cpu time    0.0192: real time    0.0193
    --------------------------------------------
      LOOP:  cpu time    1.8167: real time    1.8311

 eigenvalue-minimisations  :   126
 total energy-change (2. order) :-0.4661662E+01  (-0.5357362E+00)
 number of electron      41.0000000 magnetization       5.7035979
 augmentation part       -1.5821577 magnetization       4.9040941

 DIPCOR: dipole corrections for dipol
 direction  3 min pos   269,
 dipolmoment           0.000000      0.000000     -0.168594 electrons x Angstroem
 Tr[quadrupol]      -768.728035

 energy correction for charged system         0.000000 eV
 dipol+quadrupol energy correction           -0.001478 eV
 added-field ion interaction          5.565813 eV  (added to PSCEN)


 Broyden mixing:
  rms(total) = 0.80298E+00    rms(broyden)= 0.80284E+00
  rms(prec ) = 0.80980E+00
  weight for this iteration     100.00

 eigenvalues of (default mixing * dielectric matrix)
  average eigenvalue GAMMA=   0.9674
  1.1801  0.7547

 Free energy of the ion-electron system (eV)
  ---------------------------------------------------
  alpha Z        PSCENC =         9.75678354
  Ewald energy   TEWEN  =      4173.70774374
  -Hartree energ DENC   =     -6176.06506213
  -exchange      EXHF   =         0.00000000
  -V(xc)+E(xc)   XCENC  =       151.77453522
  PAW double counting   =      2727.77095355    -2733.43703504
  entropy T*S    EENTRO =        -0.00000000
  eigenvalues    EBANDS =      -566.35937076
  atomic energy  EATOM  =      2388.18935845
  Solvation  Ecorr_sol  =         0.00000000
  ---------------------------------------------------
  free energy    TOTEN  =       -24.66209344 eV

  energy without entropy =      -24.66209344  energy(sigma->0) =      -24.66209344


--------------------------------------------------------------------------------------------------------




--------------------------------------- Iteration      1(   8)  ---------------------------------------


    POTLOK:  cpu time    0.6809: real time    0.6863
    SETDIJ:  cpu time    0.0118: real time    0.0118
    EDDIAG:  cpu time    0.2181: real time    0.2195
  RMM-DIIS:  cpu time    0.7543: real time    0.7600
    ORTHCH:  cpu time    0.0192: real time    0.0193
       DOS:  cpu time    0.0002: real time    0.0002
    CHARGE:  cpu time    0.1301: real time    0.1311
    MIXING:  cpu time    0.0158: real time    0.0159
    --------------------------------------------
      LOOP:  cpu time    1.8304: real time    1.8441

 eigenvalue-minimisations  :   128
 total energy-change (2. order) :-0.3554042E+01  (-0.3257824E+00)
 number of electron      41.0000000 magnetization       5.3588303
 augmentation part       -1.4665901 magnetization       4.5395941

 DIPCOR: dipole corrections for dipol
 direction  3 min pos   269,
 dipolmoment           0.000000      0.000000     -0.150540 electrons x Angstroem
 Tr[quadrupol]      -768.287401

 energy correction for charged system         0.000000 eV
 dipol+quadrupol energy correction           -0.001179 eV
 added-field ion interaction          4.969792 eV  (added to PSCEN)


 Broyden mixing:
  rms(total) = 0.72988E+00    rms(broyden)= 0.72946E+00
  rms(prec ) = 0.74295E+00
  weight for this iteration     100.00

 eigenvalues of (default mixing * dielectric matrix)
  average eigenvalue GAMMA=   0.9520
  1.6982  0.6805  0.4773

 Free energy of the ion-electron system (eV)
  ---------------------------------------------------
  alpha Z        PSCENC =         9.16106224
  Ewald energy   TEWEN  =      4173.70774374
  -Hartree energ DENC   =     -6181.54830165
  -exchange      EXHF   =         0.00000000
  -V(xc)+E(xc)   XCENC  =       149.35658388
  PAW double counting   =      3121.96415204    -3127.76636552
  entropy T*S    EENTRO =        -0.00000000
  eigenvalues    EBANDS =      -561.28036841
  atomic energy  EATOM  =      2388.18935845
  Solvation  Ecorr_sol  =         0.00000000
  ---------------------------------------------------
  free energy    TOTEN  =       -28.21613524 eV

  energy without entropy =      -28.21613524  energy(sigma->0) =      -28.21613524


--------------------------------------------------------------------------------------------------------




--------------------------------------- Iteration      1(   9)  ---------------------------------------


    POTLOK:  cpu time    0.6982: real time    0.7047
    SETDIJ:  cpu time    0.0069: real time    0.0069
    EDDIAG:  cpu time    0.1894: real time    0.1907
  RMM-DIIS:  cpu time    0.7848: real time    0.7905
    ORTHCH:  cpu time    0.0157: real time    0.0158
       DOS:  cpu time    0.0002: real time    0.0002
    CHARGE:  cpu time    0.1210: real time    0.1219
    MIXING:  cpu time    0.0214: real time    0.0215
    --------------------------------------------
      LOOP:  cpu time    1.8376: real time    1.8521

 eigenvalue-minimisations  :   130
 total energy-change (2. order) :-0.1281822E+01  (-0.1006900E+00)
 number of electron      41.0000000 magnetization       5.0451956
 augmentation part       -1.4403660 magnetization       4.2099460

 DIPCOR: dipole corrections for dipol
 direction  3 min pos   269,
 dipolmoment           0.000000      0.000000     -0.166486 electrons x Angstroem
 Tr[quadrupol]      -768.551729

 energy correction for charged system         0.000000 eV
 dipol+quadrupol energy correction           -0.001441 eV
 added-field ion interaction          5.496215 eV  (added to PSCEN)


 Broyden mixing:
  rms(total) = 0.32553E+00    rms(broyden)= 0.32511E+00
  rms(prec ) = 0.33251E+00
  weight for this iteration     100.00

 eigenvalues of (default mixing * dielectric matrix)
  average eigenvalue GAMMA=   1.0287
  2.1229  0.7904  0.7904  0.4114

 Free energy of the ion-electron system (eV)
  ---------------------------------------------------
  alpha Z        PSCENC =         9.68722196
  Ewald energy   TEWEN  =      4173.70774374
  -Hartree energ DENC   =     -6185.78410773
  -exchange      EXHF   =         0.00000000
  -V(xc)+E(xc)   XCENC  =       148.64088101
  PAW double counting   =      3322.76615982    -3328.63528413
  entropy T*S    EENTRO =        -0.00000000
  eigenvalues    EBANDS =      -558.06992997
  atomic energy  EATOM  =      2388.18935845
  Solvation  Ecorr_sol  =         0.00000000
  ---------------------------------------------------
  free energy    TOTEN  =       -29.49795685 eV

  energy without entropy =      -29.49795685  energy(sigma->0) =      -29.49795685


--------------------------------------------------------------------------------------------------------




--------------------------------------- Iteration      1(  10)  ---------------------------------------


    POTLOK:  cpu time    0.6732: real time    0.6791
    SETDIJ:  cpu time    0.0087: real time    0.0087
    EDDIAG:  cpu time    0.2116: real time    0.2131
  RMM-DIIS:  cpu time    0.7586: real time    0.7642
    ORTHCH:  cpu time    0.0169: real time    0.0170
       DOS:  cpu time    0.0004: real time    0.0004
    CHARGE:  cpu time    0.1078: real time    0.1084
    MIXING:  cpu time    0.0238: real time    0.0240
    --------------------------------------------
      LOOP:  cpu time    1.8009: real time    1.8149

 eigenvalue-minimisations  :   132
 total energy-change (2. order) :-0.1082693E+01  (-0.3824993E-01)
 number of electron      41.0000000 magnetization       4.7500713
 augmentation part       -1.5029959 magnetization       3.9389257

 DIPCOR: dipole corrections for dipol
 direction  3 min pos   269,
 dipolmoment           0.000000      0.000000     -0.207777 electrons x Angstroem
 Tr[quadrupol]      -769.305155

 energy correction for charged system         0.000000 eV
 dipol+quadrupol energy correction           -0.002245 eV
 added-field ion interaction          6.859365 eV  (added to PSCEN)


 Broyden mixing:
  rms(total) = 0.26514E+00    rms(broyden)= 0.26478E+00
  rms(prec ) = 0.26967E+00
  weight for this iteration     100.00

 eigenvalues of (default mixing * dielectric matrix)
  average eigenvalue GAMMA=   1.0109
  2.3174  0.8660  0.6548  0.6548  0.5614

 Free energy of the ion-electron system (eV)
  ---------------------------------------------------
  alpha Z        PSCENC =        11.04956820
  Ewald energy   TEWEN  =      4173.70774374
  -Hartree energ DENC   =     -6188.86796484
  -exchange      EXHF   =         0.00000000
  -V(xc)+E(xc)   XCENC  =       147.91132875
  PAW double counting   =      3421.60657308    -3427.46997518
  entropy T*S    EENTRO =        -0.00000000
  eigenvalues    EBANDS =      -556.70728214
  atomic energy  EATOM  =      2388.18935845
  Solvation  Ecorr_sol  =         0.00000000
  ---------------------------------------------------
  free energy    TOTEN  =       -30.58064995 eV

  energy without entropy =      -30.58064995  energy(sigma->0) =      -30.58064995


--------------------------------------------------------------------------------------------------------




--------------------------------------- Iteration      1(  11)  ---------------------------------------


    POTLOK:  cpu time    0.7083: real time    0.7138
    SETDIJ:  cpu time    0.0122: real time    0.0123
    EDDIAG:  cpu time    0.2221: real time    0.2240
  RMM-DIIS:  cpu time    0.7576: real time    0.7630
    ORTHCH:  cpu time    0.0123: real time    0.0841
       DOS:  cpu time    0.0002: real time    0.0001
    CHARGE:  cpu time    0.1291: real time    0.1301
    MIXING:  cpu time    0.0206: real time    0.0207
    --------------------------------------------
      LOOP:  cpu time    1.8622: real time    1.9482

 eigenvalue-minimisations  :   133
 total energy-change (2. order) :-0.7073784E+00  (-0.1798580E-01)
 number of electron      41.0000000 magnetization       4.4924942
 augmentation part       -1.5161600 magnetization       3.6903810

 DIPCOR: dipole corrections for dipol
 direction  3 min pos   269,
 dipolmoment           0.000000      0.000000     -0.225542 electrons x Angstroem
 Tr[quadrupol]      -769.465512

 energy correction for charged system         0.000000 eV
 dipol+quadrupol energy correction           -0.002645 eV
 added-field ion interaction          7.445867 eV  (added to PSCEN)


 Broyden mixing:
  rms(total) = 0.34832E+00    rms(broyden)= 0.34758E+00
  rms(prec ) = 0.35561E+00
  weight for this iteration     100.00

 eigenvalues of (default mixing * dielectric matrix)
  average eigenvalue GAMMA=   0.9893
  2.4150  1.0227  0.7822  0.7822  0.4667  0.4667

 Free energy of the ion-electron system (eV)
  ---------------------------------------------------
  alpha Z        PSCENC =        11.63566990
  Ewald energy   TEWEN  =      4173.70774374
  -Hartree energ DENC   =     -6187.21130981
  -exchange      EXHF   =         0.00000000
  -V(xc)+E(xc)   XCENC  =       147.32142581
  PAW double counting   =      3447.33536706    -3453.16008657
  entropy T*S    EENTRO =        -0.00000000
  eigenvalues    EBANDS =      -559.10619697
  atomic energy  EATOM  =      2388.18935845
  Solvation  Ecorr_sol  =         0.00000000
  ---------------------------------------------------
  free energy    TOTEN  =       -31.28802839 eV

  energy without entropy =      -31.28802839  energy(sigma->0) =      -31.28802839


--------------------------------------------------------------------------------------------------------




--------------------------------------- Iteration      1(  12)  ---------------------------------------


    POTLOK:  cpu time    0.7097: real time    0.7155
    SETDIJ:  cpu time    0.0065: real time    0.0065
    EDDIAG:  cpu time    0.1919: real time    0.1931
  RMM-DIIS:  cpu time    0.7777: real time    0.7833
    ORTHCH:  cpu time    0.0199: real time    0.0201
       DOS:  cpu time    0.0004: real time    0.0004
    CHARGE:  cpu time    0.1296: real time    0.1306
    MIXING:  cpu time    0.0173: real time    0.0175
    --------------------------------------------
      LOOP:  cpu time    1.8531: real time    1.8671

 eigenvalue-minimisations  :   132
 total energy-change (2. order) :-0.5367224E+00  (-0.1269234E-01)
 number of electron      41.0000000 magnetization       4.0934100
 augmentation part       -1.5154484 magnetization       3.2891993

 DIPCOR: dipole corrections for dipol
 direction  3 min pos   269,
 dipolmoment           0.000000      0.000000     -0.240576 electrons x Angstroem
 Tr[quadrupol]      -769.599176

 energy correction for charged system         0.000000 eV
 dipol+quadrupol energy correction           -0.003010 eV
 added-field ion interaction          7.942174 eV  (added to PSCEN)


 Broyden mixing:
  rms(total) = 0.16934E+00    rms(broyden)= 0.16869E+00
  rms(prec ) = 0.17082E+00
  weight for this iteration     100.00

 eigenvalues of (default mixing * dielectric matrix)
  average eigenvalue GAMMA=   1.0153
  2.4698  1.4304  0.8165  0.8165  0.7074  0.4332  0.4332

 Free energy of the ion-electron system (eV)
  ---------------------------------------------------
  alpha Z        PSCENC =        12.13161325
  Ewald energy   TEWEN  =      4173.70774374
  -Hartree energ DENC   =     -6185.77435885
  -exchange      EXHF   =         0.00000000
  -V(xc)+E(xc)   XCENC  =       146.83471078
  PAW double counting   =      3458.06361422    -3463.85643493
  entropy T*S    EENTRO =        -0.00000000
  eigenvalues    EBANDS =      -561.12099743
  atomic energy  EATOM  =      2388.18935845
  Solvation  Ecorr_sol  =         0.00000000
  ---------------------------------------------------
  free energy    TOTEN  =       -31.82475078 eV

  energy without entropy =      -31.82475078  energy(sigma->0) =      -31.82475078


--------------------------------------------------------------------------------------------------------




--------------------------------------- Iteration      1(  13)  ---------------------------------------


    POTLOK:  cpu time    0.6953: real time    0.7012
    SETDIJ:  cpu time    0.0075: real time    0.0075
    EDDIAG:  cpu time    0.2105: real time    0.2119
  RMM-DIIS:  cpu time    0.7282: real time    0.7336
    ORTHCH:  cpu time    0.0173: real time    0.0174
       DOS:  cpu time    0.0002: real time    0.0002
    CHARGE:  cpu time    0.1320: real time    0.1330
    MIXING:  cpu time    0.0187: real time    0.0189
    --------------------------------------------
      LOOP:  cpu time    1.8096: real time    1.8234

 eigenvalue-minimisations  :   129
 total energy-change (2. order) :-0.8627586E+00  (-0.1031887E-01)
 number of electron      41.0000000 magnetization       3.4766619
 augmentation part       -1.5098487 magnetization       2.6696817

 DIPCOR: dipole corrections for dipol
 direction  3 min pos   269,
 dipolmoment           0.000000      0.000000     -0.259704 electrons x Angstroem
 Tr[quadrupol]      -769.698153

 energy correction for charged system         0.000000 eV
 dipol+quadrupol energy correction           -0.003507 eV
 added-field ion interaction          8.573636 eV  (added to PSCEN)


 Broyden mixing:
  rms(total) = 0.10937E+00    rms(broyden)= 0.10935E+00
  rms(prec ) = 0.10951E+00
  weight for this iteration     100.00

 eigenvalues of (default mixing * dielectric matrix)
  average eigenvalue GAMMA=   1.0684
  2.4640  1.9552  0.8301  0.8301  0.7992  0.7992  0.4348  0.4348

 Free energy of the ion-electron system (eV)
  ---------------------------------------------------
  alpha Z        PSCENC =        12.76257717
  Ewald energy   TEWEN  =      4173.70774374
  -Hartree energ DENC   =     -6183.32362633
  -exchange      EXHF   =         0.00000000
  -V(xc)+E(xc)   XCENC  =       146.02314654
  PAW double counting   =      3451.33773752    -3457.09074543
  entropy T*S    EENTRO =        -0.00000000
  eigenvalues    EBANDS =      -564.29370100
  atomic energy  EATOM  =      2388.18935845
  Solvation  Ecorr_sol  =         0.00000000
  ---------------------------------------------------
  free energy    TOTEN  =       -32.68750934 eV

  energy without entropy =      -32.68750934  energy(sigma->0) =      -32.68750934


--------------------------------------------------------------------------------------------------------




--------------------------------------- Iteration      1(  14)  ---------------------------------------


    POTLOK:  cpu time    0.7095: real time    0.7154
    SETDIJ:  cpu time    0.0073: real time    0.0074
    EDDIAG:  cpu time    0.2083: real time    0.2098
  RMM-DIIS:  cpu time    0.7402: real time    0.7458
    ORTHCH:  cpu time    0.0116: real time    0.8120
       DOS:  cpu time    0.0003: real time    0.0003
    CHARGE:  cpu time    0.1190: real time    0.1199
    MIXING:  cpu time    0.0211: real time    0.0213
    --------------------------------------------
      LOOP:  cpu time    1.8173: real time    2.6317

 eigenvalue-minimisations  :   126
 total energy-change (2. order) :-0.1029825E+01  (-0.1915503E-01)
 number of electron      41.0000000 magnetization       2.6659288
 augmentation part       -1.5136677 magnetization       1.8600792

 DIPCOR: dipole corrections for dipol
 direction  3 min pos   269,
 dipolmoment           0.000000      0.000000     -0.292679 electrons x Angstroem
 Tr[quadrupol]      -769.955634

 energy correction for charged system         0.000000 eV
 dipol+quadrupol energy correction           -0.004455 eV
 added-field ion interaction          9.662265 eV  (added to PSCEN)


 Broyden mixing:
  rms(total) = 0.14142E+00    rms(broyden)= 0.14127E+00
  rms(prec ) = 0.14398E+00
  weight for this iteration     100.00

 eigenvalues of (default mixing * dielectric matrix)
  average eigenvalue GAMMA=   1.1788
  2.9222  2.5709  1.1654  0.8070  0.8070  0.8095  0.6594  0.4338  0.4338

 Free energy of the ion-electron system (eV)
  ---------------------------------------------------
  alpha Z        PSCENC =        13.85025872
  Ewald energy   TEWEN  =      4173.70774374
  -Hartree energ DENC   =     -6181.12838958
  -exchange      EXHF   =         0.00000000
  -V(xc)+E(xc)   XCENC  =       145.11368989
  PAW double counting   =      3437.33150427    -3443.05684630
  entropy T*S    EENTRO =        -0.00000000
  eigenvalues    EBANDS =      -567.72465386
  atomic energy  EATOM  =      2388.18935845
  Solvation  Ecorr_sol  =         0.00000000
  ---------------------------------------------------
  free energy    TOTEN  =       -33.71733469 eV

  energy without entropy =      -33.71733469  energy(sigma->0) =      -33.71733469


--------------------------------------------------------------------------------------------------------




--------------------------------------- Iteration      1(  15)  ---------------------------------------


    POTLOK:  cpu time    0.6982: real time    0.7050
    SETDIJ:  cpu time    0.0081: real time    0.0082
    EDDIAG:  cpu time    0.2187: real time    0.2203
  RMM-DIIS:  cpu time    0.7309: real time    0.7364
    ORTHCH:  cpu time    0.0178: real time    0.0179
       DOS:  cpu time    0.0002: real time    0.0002
    CHARGE:  cpu time    0.1308: real time    0.1318
    MIXING:  cpu time    0.0211: real time    0.0213
    --------------------------------------------
      LOOP:  cpu time    1.8260: real time    1.8412

 eigenvalue-minimisations  :   122
 total energy-change (2. order) :-0.8355118E+00  (-0.2858850E-01)
 number of electron      41.0000000 magnetization       1.9865374
 augmentation part       -1.5168493 magnetization       1.1805443

 DIPCOR: dipole corrections for dipol
 direction  3 min pos   269,
 dipolmoment           0.000000      0.000000     -0.332410 electrons x Angstroem
 Tr[quadrupol]      -770.242948

 energy correction for charged system         0.000000 eV
 dipol+quadrupol energy correction           -0.005746 eV
 added-field ion interaction         10.973890 eV  (added to PSCEN)


 Broyden mixing:
  rms(total) = 0.93334E-01    rms(broyden)= 0.93020E-01
  rms(prec ) = 0.94700E-01
  weight for this iteration     100.00

 eigenvalues of (default mixing * dielectric matrix)
  average eigenvalue GAMMA=   1.4939
  6.0558  2.4385  1.5679  1.0074  0.8094  0.8094  0.4319  0.4319  0.7711  0.6155

 Free energy of the ion-electron system (eV)
  ---------------------------------------------------
  alpha Z        PSCENC =        15.16059240
  Ewald energy   TEWEN  =      4173.70774374
  -Hartree energ DENC   =     -6178.73351531
  -exchange      EXHF   =         0.00000000
  -V(xc)+E(xc)   XCENC  =       144.37717189
  PAW double counting   =      3417.12568474    -3422.83285100
  entropy T*S    EENTRO =         0.00000000
  eigenvalues    EBANDS =      -571.54703138
  atomic energy  EATOM  =      2388.18935845
  Solvation  Ecorr_sol  =         0.00000000
  ---------------------------------------------------
  free energy    TOTEN  =       -34.55284649 eV

  energy without entropy =      -34.55284649  energy(sigma->0) =      -34.55284649


--------------------------------------------------------------------------------------------------------




--------------------------------------- Iteration      1(  16)  ---------------------------------------


    POTLOK:  cpu time    0.6856: real time    0.6925
    SETDIJ:  cpu time    0.0097: real time    0.0097
    EDDIAG:  cpu time    0.1905: real time    0.1919
  RMM-DIIS:  cpu time    0.7719: real time    0.7776
    ORTHCH:  cpu time    0.0182: real time    0.0183
       DOS:  cpu time    0.0004: real time    0.0004
    CHARGE:  cpu time    0.1247: real time    0.1255
    MIXING:  cpu time    0.0197: real time    0.0199
    --------------------------------------------
      LOOP:  cpu time    1.8206: real time    1.8359

 eigenvalue-minimisations  :   128
 total energy-change (2. order) :-0.6340686E+00  (-0.2182772E-01)
 number of electron      41.0000000 magnetization       1.7071973
 augmentation part       -1.5151574 magnetization       0.8998075

 DIPCOR: dipole corrections for dipol
 direction  3 min pos   269,
 dipolmoment           0.000000      0.000000     -0.358725 electrons x Angstroem
 Tr[quadrupol]      -770.372829

 energy correction for charged system         0.000000 eV
 dipol+quadrupol energy correction           -0.006692 eV
 added-field ion interaction         11.842638 eV  (added to PSCEN)


 Broyden mixing:
  rms(total) = 0.85866E-01    rms(broyden)= 0.85834E-01
  rms(prec ) = 0.88168E-01
  weight for this iteration     100.00

 eigenvalues of (default mixing * dielectric matrix)
  average eigenvalue GAMMA=   1.6145
  8.0376  2.4084  1.4643  1.1999  0.8003  0.8003  0.4330  0.4330  0.7826  0.7826
  0.6177

 Free energy of the ion-electron system (eV)
  ---------------------------------------------------
  alpha Z        PSCENC =        16.02839437
  Ewald energy   TEWEN  =      4173.70774374
  -Hartree energ DENC   =     -6176.68714404
  -exchange      EXHF   =         0.00000000
  -V(xc)+E(xc)   XCENC  =       143.78114932
  PAW double counting   =      3406.82854883    -3412.53184490
  entropy T*S    EENTRO =        -0.00000000
  eigenvalues    EBANDS =      -574.50312081
  atomic energy  EATOM  =      2388.18935845
  Solvation  Ecorr_sol  =         0.00000000
  ---------------------------------------------------
  free energy    TOTEN  =       -35.18691505 eV

  energy without entropy =      -35.18691505  energy(sigma->0) =      -35.18691505


--------------------------------------------------------------------------------------------------------




--------------------------------------- Iteration      1(  17)  ---------------------------------------


    POTLOK:  cpu time    0.7018: real time    0.7071
    SETDIJ:  cpu time    0.0076: real time    0.3150
    EDDIAG:  cpu time    0.2163: real time    0.2178
  RMM-DIIS:  cpu time    0.7720: real time    0.7773
    ORTHCH:  cpu time    0.0176: real time    0.3037
       DOS:  cpu time    0.0008: real time    1.1339
    CHARGE:  cpu time    0.1121: real time    0.5578
    MIXING:  cpu time    0.0229: real time    2.0721
    --------------------------------------------
      LOOP:  cpu time    1.8519: real time    6.8919

 eigenvalue-minimisations  :   132
 total energy-change (2. order) :-0.1817136E+00  (-0.6945338E-02)
 number of electron      41.0000000 magnetization       1.5283790
 augmentation part       -1.5158076 magnetization       0.7215472

 DIPCOR: dipole corrections for dipol
 direction  3 min pos   269,
 dipolmoment           0.000000      0.000000     -0.364877 electrons x Angstroem
 Tr[quadrupol]      -770.379566

 energy correction for charged system         0.000000 eV
 dipol+quadrupol energy correction           -0.006923 eV
 added-field ion interaction         12.045731 eV  (added to PSCEN)


 Broyden mixing:
  rms(total) = 0.36735E-01    rms(broyden)= 0.36380E-01
  rms(prec ) = 0.37237E-01
  weight for this iteration     100.00

 eigenvalues of (default mixing * dielectric matrix)
  average eigenvalue GAMMA=   1.7311
  9.6207  2.4198  1.5973  1.5973  0.7995  0.7995  0.8882  0.8882  0.4331  0.4331
  0.6485  0.6485

 Free energy of the ion-electron system (eV)
  ---------------------------------------------------
  alpha Z        PSCENC =        16.23125658
  Ewald energy   TEWEN  =      4173.70774374
  -Hartree energ DENC   =     -6175.80632888
  -exchange      EXHF   =         0.00000000
  -V(xc)+E(xc)   XCENC  =       143.60210794
  PAW double counting   =      3408.54930504    -3414.25131364
  entropy T*S    EENTRO =        -0.00000000
  eigenvalues    EBANDS =      -575.59075788
  atomic energy  EATOM  =      2388.18935845
  Solvation  Ecorr_sol  =         0.00000000
  ---------------------------------------------------
  free energy    TOTEN  =       -35.36862867 eV

  energy without entropy =      -35.36862867  energy(sigma->0) =      -35.36862867


--------------------------------------------------------------------------------------------------------




--------------------------------------- Iteration      1(  18)  ---------------------------------------


    POTLOK:  cpu time    0.6884: real time   16.1948
    SETDIJ:  cpu time    0.0084: real time    0.1068
    EDDIAG:  cpu time    0.1963: real time    0.5545
  RMM-DIIS:  cpu time    0.8001: real time    0.8342
    ORTHCH:  cpu time    0.0151: real time    0.0158
       DOS:  cpu time    0.0002: real time    0.0002
    CHARGE:  cpu time    0.1342: real time    0.1352
    MIXING:  cpu time    0.0215: real time    0.0216
    --------------------------------------------
      LOOP:  cpu time    1.8635: real time   17.0558

 eigenvalue-minimisations  :   136
 total energy-change (2. order) :-0.7914317E-01  (-0.1658096E-02)
 number of electron      41.0000000 magnetization       1.4010982
 augmentation part       -1.5159754 magnetization       0.5942355

 DIPCOR: dipole corrections for dipol
 direction  3 min pos   269,
 dipolmoment           0.000000      0.000000     -0.364618 electrons x Angstroem
 Tr[quadrupol]      -770.339720

 energy correction for charged system         0.000000 eV
 dipol+quadrupol energy correction           -0.006914 eV
 added-field ion interaction         12.037198 eV  (added to PSCEN)


 Broyden mixing:
  rms(total) = 0.17700E-01    rms(broyden)= 0.17700E-01
  rms(prec ) = 0.18012E-01
  weight for this iteration     100.00

 eigenvalues of (default mixing * dielectric matrix)
  average eigenvalue GAMMA=   1.7508
 10.2403  2.4475  1.8155  1.8155  0.9416  0.9416  0.7983  0.7983  0.4331  0.4331
  0.7528  0.7331  0.6091

 Free energy of the ion-electron system (eV)
  ---------------------------------------------------
  alpha Z        PSCENC =        16.22273261
  Ewald energy   TEWEN  =      4173.70774374
  -Hartree energ DENC   =     -6174.98867562
  -exchange      EXHF   =         0.00000000
  -V(xc)+E(xc)   XCENC  =       143.50740071
  PAW double counting   =      3409.19077349    -3414.88958960
  entropy T*S    EENTRO =        -0.00000000
  eigenvalues    EBANDS =      -576.38751562
  atomic energy  EATOM  =      2388.18935845
  Solvation  Ecorr_sol  =         0.00000000
  ---------------------------------------------------
  free energy    TOTEN  =       -35.44777184 eV

  energy without entropy =      -35.44777184  energy(sigma->0) =      -35.44777184


--------------------------------------------------------------------------------------------------------




--------------------------------------- Iteration      1(  19)  ---------------------------------------


    POTLOK:  cpu time    0.7006: real time    0.7076
    SETDIJ:  cpu time    0.0124: real time    0.0124
    EDDIAG:  cpu time    0.2082: real time    0.2098
  RMM-DIIS:  cpu time    0.7740: real time    0.7810
    ORTHCH:  cpu time    0.0157: real time    0.0158
       DOS:  cpu time    0.0003: real time    0.0003
    CHARGE:  cpu time    0.1234: real time    0.1243
    MIXING:  cpu time    0.0235: real time    0.0237
    --------------------------------------------
      LOOP:  cpu time    1.8585: real time    1.8753

 eigenvalue-minimisations  :   132
 total energy-change (2. order) :-0.4178770E-01  (-0.4765622E-03)
 number of electron      41.0000000 magnetization       1.2860559
 augmentation part       -1.5159780 magnetization       0.4793275

 DIPCOR: dipole corrections for dipol
 direction  3 min pos   269,
 dipolmoment           0.000000      0.000000     -0.357995 electrons x Angstroem
 Tr[quadrupol]      -770.245516

 energy correction for charged system         0.000000 eV
 dipol+quadrupol energy correction           -0.006665 eV
 added-field ion interaction         11.818526 eV  (added to PSCEN)


 Broyden mixing:
  rms(total) = 0.16560E-01    rms(broyden)= 0.16529E-01
  rms(prec ) = 0.16847E-01
  weight for this iteration     100.00

 eigenvalues of (default mixing * dielectric matrix)
  average eigenvalue GAMMA=   1.7990
 10.8115  2.8286  2.3679  1.5670  1.2966  0.9238  0.9238  0.7968  0.7968  0.4332
  0.4332  0.7034  0.7034  0.5996

 Free energy of the ion-electron system (eV)
  ---------------------------------------------------
  alpha Z        PSCENC =        16.00431004
  Ewald energy   TEWEN  =      4173.70774374
  -Hartree energ DENC   =     -6174.32424461
  -exchange      EXHF   =         0.00000000
  -V(xc)+E(xc)   XCENC  =       143.45875670
  PAW double counting   =      3412.03506559    -3417.73513286
  entropy T*S    EENTRO =        -0.00000000
  eigenvalues    EBANDS =      -576.82541660
  atomic energy  EATOM  =      2388.18935845
  Solvation  Ecorr_sol  =         0.00000000
  ---------------------------------------------------
  free energy    TOTEN  =       -35.48955955 eV

  energy without entropy =      -35.48955955  energy(sigma->0) =      -35.48955955


--------------------------------------------------------------------------------------------------------




--------------------------------------- Iteration      1(  20)  ---------------------------------------


    POTLOK:  cpu time    0.7217: real time    0.7282
    SETDIJ:  cpu time    0.0089: real time    0.0090
    EDDIAG:  cpu time    0.2093: real time    0.2111
  RMM-DIIS:  cpu time    0.7568: real time    0.7626
    ORTHCH:  cpu time    0.0182: real time    0.0183
       DOS:  cpu time    0.0006: real time    0.0006
    CHARGE:  cpu time    0.1307: real time    0.1317
    MIXING:  cpu time    0.0244: real time    0.0245
    --------------------------------------------
      LOOP:  cpu time    1.8700: real time    1.8855

 eigenvalue-minimisations  :   130
 total energy-change (2. order) :-0.3483025E-01  (-0.2488937E-03)
 number of electron      41.0000000 magnetization       1.2188598
 augmentation part       -1.5161430 magnetization       0.4122263

 DIPCOR: dipole corrections for dipol
 direction  3 min pos   269,
 dipolmoment           0.000000      0.000000     -0.349154 electrons x Angstroem
 Tr[quadrupol]      -770.139419

 energy correction for charged system         0.000000 eV
 dipol+quadrupol energy correction           -0.006340 eV
 added-field ion interaction         11.526681 eV  (added to PSCEN)


 Broyden mixing:
  rms(total) = 0.93086E-02    rms(broyden)= 0.92994E-02
  rms(prec ) = 0.93610E-02
  weight for this iteration     100.00

 eigenvalues of (default mixing * dielectric matrix)
  average eigenvalue GAMMA=   1.8496
 11.3779  3.6081  2.4889  1.5604  1.5604  0.9478  0.9478  0.7946  0.7946  0.4332
  0.4332  0.7763  0.7763  0.6127  0.6316

 Free energy of the ion-electron system (eV)
  ---------------------------------------------------
  alpha Z        PSCENC =        15.71279020
  Ewald energy   TEWEN  =      4173.70774374
  -Hartree energ DENC   =     -6173.66265678
  -exchange      EXHF   =         0.00000000
  -V(xc)+E(xc)   XCENC  =       143.41399876
  PAW double counting   =      3414.96370400    -3420.66338276
  entropy T*S    EENTRO =        -0.00000000
  eigenvalues    EBANDS =      -577.18594540
  atomic energy  EATOM  =      2388.18935845
  Solvation  Ecorr_sol  =         0.00000000
  ---------------------------------------------------
  free energy    TOTEN  =       -35.52438979 eV

  energy without entropy =      -35.52438979  energy(sigma->0) =      -35.52438979


--------------------------------------------------------------------------------------------------------




--------------------------------------- Iteration      1(  21)  ---------------------------------------


    POTLOK:  cpu time    0.7040: real time    0.7105
    SETDIJ:  cpu time    0.0121: real time    0.0121
    EDDIAG:  cpu time    0.2285: real time    0.2303
  RMM-DIIS:  cpu time    0.6828: real time    0.6879
    ORTHCH:  cpu time    0.0191: real time    0.0193
       DOS:  cpu time    0.0002: real time    0.0002
    CHARGE:  cpu time    0.1227: real time    0.1236
    MIXING:  cpu time    0.0278: real time    0.0279
    --------------------------------------------
      LOOP:  cpu time    1.7972: real time    1.8118

 eigenvalue-minimisations  :   123
 total energy-change (2. order) :-0.2115620E-01  (-0.7217227E-04)
 number of electron      41.0000000 magnetization       1.1246872
 augmentation part       -1.5161748 magnetization       0.3180371

 DIPCOR: dipole corrections for dipol
 direction  3 min pos   269,
 dipolmoment           0.000000      0.000000     -0.341660 electrons x Angstroem
 Tr[quadrupol]      -770.066158

 energy correction for charged system         0.000000 eV
 dipol+quadrupol energy correction           -0.006070 eV
 added-field ion interaction         11.279274 eV  (added to PSCEN)


 Broyden mixing:
  rms(total) = 0.77441E-02    rms(broyden)= 0.77431E-02
  rms(prec ) = 0.77956E-02
  weight for this iteration     100.00

 eigenvalues of (default mixing * dielectric matrix)
  average eigenvalue GAMMA=   1.8764
 11.5821  4.1502  2.5571  1.7240  1.7240  1.1667  0.4332  0.4332  0.9368  0.9368
  0.7961  0.7961  0.7726  0.7726  0.6302  0.6100

 Free energy of the ion-electron system (eV)
  ---------------------------------------------------
  alpha Z        PSCENC =        15.46565168
  Ewald energy   TEWEN  =      4173.70774374
  -Hartree energ DENC   =     -6173.32579720
  -exchange      EXHF   =         0.00000000
  -V(xc)+E(xc)   XCENC  =       143.38674216
  PAW double counting   =      3416.33564583    -3422.03513884
  entropy T*S    EENTRO =        -0.00000000
  eigenvalues    EBANDS =      -577.26975181
  atomic energy  EATOM  =      2388.18935845
  Solvation  Ecorr_sol  =         0.00000000
  ---------------------------------------------------
  free energy    TOTEN  =       -35.54554599 eV

  energy without entropy =      -35.54554599  energy(sigma->0) =      -35.54554599


--------------------------------------------------------------------------------------------------------




--------------------------------------- Iteration      1(  22)  ---------------------------------------


    POTLOK:  cpu time    0.6995: real time    0.7067
    SETDIJ:  cpu time    0.0092: real time    0.0093
    EDDIAG:  cpu time    0.2160: real time    0.2175
  RMM-DIIS:  cpu time    0.6974: real time    0.7024
    ORTHCH:  cpu time    0.0199: real time    0.0200
       DOS:  cpu time    0.0003: real time    0.0003
    CHARGE:  cpu time    0.1227: real time    0.1235
    MIXING:  cpu time    0.0251: real time    0.0253
    --------------------------------------------
      LOOP:  cpu time    1.7902: real time    1.8050

 eigenvalue-minimisations  :   123
 total energy-change (2. order) :-0.1608166E-01  (-0.4475676E-04)
 number of electron      41.0000000 magnetization       1.0682813
 augmentation part       -1.5163059 magnetization       0.2615251

 DIPCOR: dipole corrections for dipol
 direction  3 min pos   269,
 dipolmoment           0.000000      0.000000     -0.328328 electrons x Angstroem
 Tr[quadrupol]      -769.952579

 energy correction for charged system         0.000000 eV
 dipol+quadrupol energy correction           -0.005606 eV
 added-field ion interaction         10.839143 eV  (added to PSCEN)


 Broyden mixing:
  rms(total) = 0.53141E-02    rms(broyden)= 0.53094E-02
  rms(prec ) = 0.53715E-02
  weight for this iteration     100.00

 eigenvalues of (default mixing * dielectric matrix)
  average eigenvalue GAMMA=   1.9798
 11.8336  5.7677  2.5995  2.3299  1.7591  1.4380  0.9698  0.9698  0.7952  0.7952
  0.4332  0.4332  0.8007  0.8007  0.6909  0.6368  0.6043

 Free energy of the ion-electron system (eV)
  ---------------------------------------------------
  alpha Z        PSCENC =        15.02598513
  Ewald energy   TEWEN  =      4173.70774374
  -Hartree energ DENC   =     -6172.93266642
  -exchange      EXHF   =         0.00000000
  -V(xc)+E(xc)   XCENC  =       143.36342874
  PAW double counting   =      3415.78687583    -3421.48586406
  entropy T*S    EENTRO =        -0.00000000
  eigenvalues    EBANDS =      -577.21648905
  atomic energy  EATOM  =      2388.18935845
  Solvation  Ecorr_sol  =         0.00000000
  ---------------------------------------------------
  free energy    TOTEN  =       -35.56162765 eV

  energy without entropy =      -35.56162765  energy(sigma->0) =      -35.56162765


--------------------------------------------------------------------------------------------------------




--------------------------------------- Iteration      1(  23)  ---------------------------------------


    POTLOK:  cpu time    0.6896: real time    0.6961
    SETDIJ:  cpu time    0.0120: real time    0.0121
    EDDIAG:  cpu time    0.2032: real time    0.2046
  RMM-DIIS:  cpu time    0.6457: real time    0.6508
    ORTHCH:  cpu time    0.0171: real time    0.0172
       DOS:  cpu time    0.0003: real time    0.0003
    CHARGE:  cpu time    0.1180: real time    0.1188
    MIXING:  cpu time    0.0277: real time    0.0278
    --------------------------------------------
      LOOP:  cpu time    1.7136: real time    1.7278

 eigenvalue-minimisations  :   113
 total energy-change (2. order) :-0.4401011E-02  (-0.1346726E-04)
 number of electron      41.0000000 magnetization       1.0299599
 augmentation part       -1.5165498 magnetization       0.2232384

 DIPCOR: dipole corrections for dipol
 direction  3 min pos   269,
 dipolmoment           0.000000      0.000000     -0.320783 electrons x Angstroem
 Tr[quadrupol]      -769.890894

[...]

 Free energy of the ion-electron system (eV)
  ---------------------------------------------------
  alpha Z        PSCENC =        14.86890477
  Ewald energy   TEWEN  =      4173.70774374
  -Hartree energ DENC   =     -6172.84295859
  -exchange      EXHF   =         0.00000000
  -V(xc)+E(xc)   XCENC  =       143.35090535
  PAW double counting   =      3414.42976080    -3420.12833495
  entropy T*S    EENTRO =        -0.00000000
  eigenvalues    EBANDS =      -577.15180843
  atomic energy  EATOM  =      2388.18935845
  Solvation  Ecorr_sol  =         0.00000000
  ---------------------------------------------------
  free energy    TOTEN  =       -35.57642887 eV

  energy without entropy =      -35.57642887  energy(sigma->0) =      -35.57642887


--------------------------------------------------------------------------------------------------------




--------------------------------------- Iteration      1(  30)  ---------------------------------------


    POTLOK:  cpu time    0.7057: real time    0.7124
    SETDIJ:  cpu time    0.0108: real time    0.0109
    EDDIAG:  cpu time    0.2067: real time    0.2085
  RMM-DIIS:  cpu time    0.4570: real time    0.4603
    ORTHCH:  cpu time    0.0162: real time    0.0164
       DOS:  cpu time    0.0002: real time    0.0002
    CHARGE:  cpu time    0.1303: real time    0.1313
    MIXING:  cpu time    0.0312: real time    0.0314
    --------------------------------------------
      LOOP:  cpu time    1.5582: real time    1.5713

 eigenvalue-minimisations  :    65
 total energy-change (2. order) :-0.2971300E-04  (-0.1115906E-06)
 number of electron      41.0000000 magnetization       1.0000938
 augmentation part       -1.5163866 magnetization       0.1934489

 DIPCOR: dipole corrections for dipol
 direction  3 min pos   269,
 dipolmoment           0.000000      0.000000     -0.324760 electrons x Angstroem
 Tr[quadrupol]      -769.890292

 energy correction for charged system         0.000000 eV
 dipol+quadrupol energy correction           -0.005485 eV
 added-field ion interaction         10.721357 eV  (added to PSCEN)


 Broyden mixing:
  rms(total) = 0.58229E-04    rms(broyden)= 0.58192E-04
  rms(prec ) = 0.76252E-04
  weight for this iteration     100.00

 eigenvalues of (default mixing * dielectric matrix)
  average eigenvalue GAMMA=   2.1187
 13.9760  9.9666  4.2023  3.1929  2.3377  2.3377  1.7127  1.4464  1.2288  1.2288
  1.1290  1.1290  0.4332  0.4332  0.7951  0.7951  0.9003  0.9003  0.8028  0.8028
  0.7078  0.6019  0.6192  0.6443  0.6443

 Free energy of the ion-electron system (eV)
  ---------------------------------------------------
  alpha Z        PSCENC =        14.90832122
  Ewald energy   TEWEN  =      4173.70774374
  -Hartree energ DENC   =     -6172.85324245
  -exchange      EXHF   =         0.00000000
  -V(xc)+E(xc)   XCENC  =       143.35103359
  PAW double counting   =      3414.42512958    -3420.12370811
  entropy T*S    EENTRO =        -0.00000000
  eigenvalues    EBANDS =      -577.18109459
  atomic energy  EATOM  =      2388.18935845
  Solvation  Ecorr_sol  =         0.00000000
  ---------------------------------------------------
  free energy    TOTEN  =       -35.57645859 eV

  energy without entropy =      -35.57645859  energy(sigma->0) =      -35.57645859


--------------------------------------------------------------------------------------------------------




--------------------------------------- Iteration      1(  31)  ---------------------------------------


    POTLOK:  cpu time    0.7029: real time    0.7101
    SETDIJ:  cpu time    0.0122: real time    0.0122
    EDDIAG:  cpu time    0.2095: real time    0.2110
  RMM-DIIS:  cpu time    0.4351: real time    0.4381
    ORTHCH:  cpu time    0.0152: real time    0.0152
       DOS:  cpu time    0.0001: real time    0.0001
    CHARGE:  cpu time    0.1315: real time    0.1325
    MIXING:  cpu time    0.0302: real time    0.0304
    --------------------------------------------
      LOOP:  cpu time    1.5369: real time    1.5498

 eigenvalue-minimisations  :    55
 total energy-change (2. order) :-0.1517238E-04  (-0.7070813E-07)
 number of electron      41.0000000 magnetization       1.0000580
 augmentation part       -1.5163879 magnetization       0.1934181

 DIPCOR: dipole corrections for dipol
 direction  3 min pos   269,
 dipolmoment           0.000000      0.000000     -0.325687 electrons x Angstroem
 Tr[quadrupol]      -769.893905

 energy correction for charged system         0.000000 eV
 dipol+quadrupol energy correction           -0.005516 eV
 added-field ion interaction         10.751947 eV  (added to PSCEN)


 Broyden mixing:
  rms(total) = 0.42202E-04    rms(broyden)= 0.42183E-04
  rms(prec ) = 0.53153E-04
  weight for this iteration     100.00

 eigenvalues of (default mixing * dielectric matrix)
  average eigenvalue GAMMA=   2.0987
 13.9798  9.9723  4.3093  3.4878  2.3637  2.3637  1.8199  1.5013  1.3282  1.3282
  1.1293  1.1293  0.4332  0.4332  0.7951  0.7951  0.9006  0.9006  0.8331  0.8331
  0.7215  0.7215  0.6349  0.6349  0.6006  0.6151

 Free energy of the ion-electron system (eV)
  ---------------------------------------------------
  alpha Z        PSCENC =        14.93887912
  Ewald energy   TEWEN  =      4173.70774374
  -Hartree energ DENC   =     -6172.86081479
  -exchange      EXHF   =         0.00000000
  -V(xc)+E(xc)   XCENC  =       143.35111002
  PAW double counting   =      3414.41197792    -3420.11055255
  entropy T*S    EENTRO =        -0.00000000
  eigenvalues    EBANDS =      -577.20417565
  atomic energy  EATOM  =      2388.18935845
  Solvation  Ecorr_sol  =         0.00000000
  ---------------------------------------------------
  free energy    TOTEN  =       -35.57647376 eV

  energy without entropy =      -35.57647376  energy(sigma->0) =      -35.57647376


--------------------------------------------------------------------------------------------------------




--------------------------------------- Iteration      1(  32)  ---------------------------------------


    POTLOK:  cpu time    0.7163: real time    0.7232
    SETDIJ:  cpu time    0.0109: real time    0.0110
    EDDIAG:  cpu time    0.2331: real time    0.2347
  RMM-DIIS:  cpu time    0.3659: real time    0.3685
    ORTHCH:  cpu time    0.0206: real time    0.0207
       DOS:  cpu time    0.0002: real time    0.0002
    --------------------------------------------
      LOOP:  cpu time    1.3468: real time    1.3580

 eigenvalue-minimisations  :    44
 total energy-change (2. order) :-0.6915639E-05  (-0.3287657E-07)
 number of electron      41.0000000 magnetization       1.0000580
 augmentation part       -1.5163879 magnetization       0.1934181

 DIPCOR: dipole corrections for dipol
 direction  3 min pos   269,
 dipolmoment           0.000000      0.000000     -0.326234 electrons x Angstroem
 Tr[quadrupol]      -769.896016

 energy correction for charged system         0.000000 eV
 dipol+quadrupol energy correction           -0.005535 eV
 added-field ion interaction         10.770017 eV  (added to PSCEN)


 Free energy of the ion-electron system (eV)
  ---------------------------------------------------
  alpha Z        PSCENC =        14.95693106
  Ewald energy   TEWEN  =      4173.70774374
  -Hartree energ DENC   =     -6172.86500172
  -exchange      EXHF   =         0.00000000
  -V(xc)+E(xc)   XCENC  =       143.35113830
  PAW double counting   =      3414.40727159    -3420.10584373
  entropy T*S    EENTRO =        -0.00000000
  eigenvalues    EBANDS =      -577.21807836
  atomic energy  EATOM  =      2388.18935845
  Solvation  Ecorr_sol  =         0.00000000
  ---------------------------------------------------
  free energy    TOTEN  =       -35.57648067 eV

  energy without entropy =      -35.57648067  energy(sigma->0) =      -35.57648067


--------------------------------------------------------------------------------------------------------




 average (electrostatic) potential at core
  the test charge radii are     0.6991  0.7215  0.9406
  (the norm of the test charge is              1.0000)
       1 -63.0865       2 -63.5287       3 -82.2235       4 -82.0394       5-102.2731
       6-102.0012       7-102.0314
 
 
 
 E-fermi :  -7.3942     XC(G=0):  -1.0156     alpha+bet : -0.2633


 spin component 1

 k-point     1 :       0.0000    0.0000    0.0000
  band No.  band energies     occupation 
      1     -28.5674      1.00000
      2     -26.5102      1.00000
      3     -24.2534      1.00000
      4     -21.7763      1.00000
      5     -21.6778      1.00000
      6     -17.5391      1.00000
      7     -14.3087      1.00000
      8     -13.2990      1.00000
      9     -12.9253      1.00000
     10     -12.8250      1.00000
     11     -11.8244      1.00000
     12     -11.3872      1.00000
     13      -9.4965      1.00000
     14      -9.3685      1.00000
     15      -9.3381      1.00000
     16      -8.9512      1.00000
     17      -8.5217      1.00000
     18      -8.2752      1.00000
     19      -8.1256      1.00000
     20      -7.9850      1.00000
     21      -7.9149      1.00000
     22      -2.7140      0.00000
     23      -2.6866      0.00000
     24      -1.6104      0.00000
     25      -1.0053      0.00000
     26      -0.5161      0.00000
     27      -0.1667      0.00000
     28       0.5870      0.00000

 spin component 2

 k-point     1 :       0.0000    0.0000    0.0000
  band No.  band energies     occupation 
      1     -28.1087      1.00000
      2     -25.9225      1.00000
      3     -24.2041      1.00000
      4     -21.7013      1.00000
      5     -21.6471      1.00000
      6     -17.4508      1.00000
      7     -14.1891      1.00000
      8     -12.8983      1.00000
      9     -12.8285      1.00000
     10     -12.6805      1.00000
     11     -11.5770      1.00000
     12     -11.2714      1.00000
     13      -9.2636      1.00000
     14      -9.2307      1.00000
     15      -9.0086      1.00000
     16      -8.5492      1.00000
     17      -8.3804      1.00000
     18      -8.0884      1.00000
     19      -7.9364      1.00000
     20      -7.4109      1.00000
     21      -7.1312      0.00000
     22      -2.6631      0.00000
     23      -2.6494      0.00000
     24      -1.5762      0.00000
     25      -0.9946      0.00000
     26      -0.1667      0.00000
     27       0.5000      0.00000
     28       0.9149      0.00000


--------------------------------------------------------------------------------------------------------


 soft charge-density along one line, spin component           1
         0         1         2         3         4         5         6         7         8         9
 total charge-density along one line
 
 soft charge-density along one line, spin component           2
         0         1         2         3         4         5         6         7         8         9
 total charge-density along one line
 
 pseudopotential strength for first ion, spin component:           1
 10.501  13.971   0.000  -0.003   0.000  -0.000   0.012  -0.000
 13.971  18.588   0.000  -0.004   0.000  -0.001   0.016  -0.001
  0.000   0.000  -4.619   0.000  -0.009   9.040  -0.001   0.014
 -0.003  -0.004   0.000  -4.606   0.000  -0.001   9.017  -0.000
  0.000   0.000  -0.009   0.000  -4.609   0.014  -0.000   9.024
 -0.000  -0.001   9.040  -0.001   0.014 -19.844   0.001  -0.019
  0.012   0.016  -0.001   9.017  -0.000   0.001 -19.804   0.001
 -0.000  -0.001   0.014  -0.000   9.024  -0.019   0.001 -19.821
 pseudopotential strength for first ion, spin component:           2
 10.511  13.985   0.000  -0.004   0.000  -0.001   0.015  -0.001
 13.985  18.606   0.000  -0.006   0.000  -0.001   0.020  -0.001
  0.000   0.000  -4.622   0.000  -0.008   9.043  -0.001   0.011
 -0.004  -0.006   0.000  -4.609   0.000  -0.001   9.019  -0.000
  0.000   0.000  -0.008   0.000  -4.613   0.011  -0.000   9.029
 -0.001  -0.001   9.043  -0.001   0.011 -19.844   0.001  -0.016
  0.015   0.020  -0.001   9.019  -0.000   0.001 -19.802   0.001
 -0.001  -0.001   0.011  -0.000   9.029  -0.016   0.001 -19.825
 total augmentation occupancy for first ion, spin component:           1
  8.963  -4.346   0.003  -0.549   0.011   0.000  -0.115   0.002
 -4.346   2.306  -0.003   0.374  -0.008  -0.000   0.071  -0.001
  0.003  -0.003   1.781   0.002   0.387   0.190  -0.000   0.069
 -0.549   0.374   0.002   1.625  -0.012  -0.000   0.144  -0.002
  0.011  -0.008   0.387  -0.012   1.319   0.069  -0.002   0.108
  0.000  -0.000   0.190  -0.000   0.069   0.026  -0.000   0.012
 -0.115   0.071  -0.000   0.144  -0.002  -0.000   0.016  -0.000
  0.002  -0.001   0.069  -0.002   0.108   0.012  -0.000   0.011
 total augmentation occupancy for first ion, spin component:           2
  0.025  -0.022  -0.000  -0.008   0.000   0.000  -0.003   0.000
 -0.022   0.013  -0.000   0.013  -0.000  -0.000   0.002  -0.000
 -0.000  -0.000  -0.015   0.000   0.006   0.001  -0.000   0.000
 -0.008   0.013   0.000  -0.013  -0.000  -0.000   0.001  -0.000
  0.000  -0.000   0.006  -0.000  -0.022   0.000  -0.000   0.000
  0.000  -0.000   0.001  -0.000   0.000   0.000  -0.000   0.000
 -0.003   0.002  -0.000   0.001  -0.000  -0.000   0.000  -0.000
  0.000  -0.000   0.000  -0.000   0.000   0.000  -0.000   0.000


------------------------ aborting loop because EDIFF is reached ----------------------------------------


    CHARGE:  cpu time    0.1378: real time    0.1389
    FORLOC:  cpu time    0.0236: real time    0.0238
    FORNL :  cpu time    0.3312: real time    0.3338
    STRESS:  cpu time    0.9716: real time    0.9794
    FORCOR:  cpu time    0.6906: real time    0.6953
    FORHAR:  cpu time    0.1003: real time    0.1010
    MIXING:  cpu time    0.0336: real time    0.0338
    OFIELD:  cpu time    0.0001: real time    0.0001

  FORCE on cell =-STRESS in cart. coord.  units (eV):
  Direction    XX          YY          ZZ          XY          YZ          ZX
  --------------------------------------------------------------------------------------
  Alpha Z     4.19245     4.19245     4.19245
  Ewald    3910.31815  4293.83789 -4030.44918   319.81320    32.70818     7.98720
  Hartree  4598.13133  4813.60382 -3238.85675   180.22243    20.26326     2.35737
  E(xc)    -166.69012  -165.88659  -166.74784     0.66700     0.05640     0.03172
  Local   -9226.61745 -9801.13575  6531.10952  -479.72625   -51.71906    -8.93212
  n-local   197.24878   195.73820   196.64259    -1.29110     0.14464     0.13077
  augment   -46.54796   -47.70497   -47.87775    -0.97623     0.03503     0.07672
  Kinetic   728.95749   705.48943   752.41479   -19.40826    -1.79018    -1.90432
  Fock        0.00000     0.00000     0.00000     0.00000     0.00000     0.00000
  -------------------------------------------------------------------------------------
  Total      -1.00734    -1.86552     0.42782    -0.69921    -0.30173    -0.25266
  in kB      -0.92764    -1.71792     0.39398    -0.64389    -0.27786    -0.23267
  external pressure =       -0.75 kB  Pullay stress =        0.00 kB


 VOLUME and BASIS-vectors are now :
 -----------------------------------------------------------------------------
  energy-cutoff  :      544.00
  volume of cell :     1739.83
      direct lattice vectors                 reciprocal lattice vectors
     8.315596000  0.000000000  0.000000000     0.120255962 -0.069429620  0.000000000
     4.157788000  7.201520000  0.000000000     0.000000000  0.138859574  0.000000000
     0.000000000  0.000000000 29.052834000     0.000000000  0.000000000  0.034420050

  length of vectors
     8.315596000  8.315593266 29.052834000     0.138859528  0.138859574  0.034420050


 FORCES acting on ions
    electron-ion (+dipol)            ewald-force                    non-local-force                 convergence-correction
 -----------------------------------------------------------------------------------------------
   -.504E+01 -.474E+01 0.740E+02   0.486E+01 0.455E+01 -.695E+02   0.771E-01 0.815E-01 -.290E+01   -.565E-04 -.827E-04 -.403E-03
   0.960E-01 -.249E+01 -.954E+02   0.291E+00 0.278E+01 0.888E+02   -.540E+00 -.464E+00 0.694E+01   0.316E-05 -.213E-04 -.396E-03
   -.143E+03 -.243E+03 0.329E+03   0.167E+03 0.283E+03 -.352E+03   -.238E+02 -.411E+02 0.222E+02   -.221E-03 -.384E-03 -.509E-03
   0.135E+03 0.249E+03 0.332E+03   -.158E+03 -.289E+03 -.354E+03   0.232E+02 0.417E+02 0.219E+02   0.160E-03 0.297E-03 -.545E-03
   -.132E+03 -.230E+03 -.259E+03   0.135E+03 0.235E+03 0.261E+03   -.272E+01 -.473E+01 -.269E+01   -.132E-04 -.521E-04 0.767E-04
   0.286E+03 -.115E+02 -.200E+03   -.292E+03 0.115E+02 0.201E+03   0.593E+01 -.761E-01 -.155E+01   0.287E-04 -.437E-04 0.556E-04
   -.140E+03 0.242E+03 -.222E+03   0.143E+03 -.247E+03 0.224E+03   -.279E+01 0.511E+01 -.191E+01   -.583E-04 0.290E-04 0.715E-04
 -----------------------------------------------------------------------------------------------
   0.652E+00 -.550E+00 -.419E+02   0.000E+00 -.284E-13 0.568E-13   -.651E+00 0.552E+00 0.419E+02   -.157E-03 -.258E-03 -.165E-02
 
 
 POSITION                                       TOTAL-FORCE (eV/Angst)
 -----------------------------------------------------------------------------------
      4.85054      3.61070      9.50174        -0.098285     -0.108547      1.669981
      4.80373      3.60810     11.06517        -0.153750     -0.172850      0.322959
      5.42368      4.59965      8.96931        -0.357516     -0.672960     -0.738400
      4.29324      2.60769      8.97362         0.557349      0.911390     -0.878662
      5.62237      5.02213     11.75592        -0.018330     -0.051599     -0.353568
      3.07822      3.62415     11.53945         0.225158     -0.062968      0.004865
      5.60730      2.11523     11.63019        -0.154625      0.157534     -0.027176
 -----------------------------------------------------------------------------------
    total drift:                                0.000423      0.000873     -0.004551


--------------------------------------------------------------------------------------------------------



  FREE ENERGIE OF THE ION-ELECTRON SYSTEM (eV)
  ---------------------------------------------------
  free  energy   TOTEN  =       -35.57648067 eV

  energy  without entropy=      -35.57648067  energy(sigma->0) =      -35.57648067
 


--------------------------------------------------------------------------------------------------------


    POTLOK:  cpu time    0.7079: real time    0.7130


--------------------------------------------------------------------------------------------------------


 stress matrix after NEB project (eV)
     -1.00734     -0.69921     -0.25266
     -0.69921     -1.86552     -0.30173
     -0.25266     -0.30173      0.42782
  FORCES: max atom, RMS     1.676389    0.944117
  FORCE total and by dimension    2.497899    1.669981
  Stress total and by dimension    2.442427    1.865516
     LOOP+:  cpu time   57.1725: real time   79.5740
    4ORBIT:  cpu time    0.0000: real time    0.0000

 total amount of memory used by VASP MPI-rank0   114916. kBytes
=======================================================================

   base      :      30000. kBytes
   nonlr-proj:        975. kBytes
   fftplans  :      22218. kBytes
   grid      :      58900. kBytes
   one-center:         12. kBytes
   wavefun   :       2811. kBytes
 
  
  
 General timing and accounting informations for this job:
 ========================================================
  
                  Total CPU time used (sec):       59.150
                            User time (sec):       57.628
                          System time (sec):        1.522
                         Elapsed time (sec):       81.986
  
                   Maximum memory used (kb):      257960.
                   Average memory used (kb):           0.
  
                          Minor page faults:       291829
                          Major page faults:           14
                 Voluntary context switches:         1750
