 vasp.5.4.4.18Apr17-6-g9f103f2a35 (build Sep 01 2024 22:12:51) complex          
  
 executed on             LinuxIFC date 2024.09.23  16:24:09
 running on   16 total cores
 distrk:  each k-point on   16 cores,    1 groups
 distr:  one band on NCORES_PER_BAND=   4 cores,    4 groups


--------------------------------------------------------------------------------------------------------


 INCAR:
 POTCAR:    PAW_PBE C 08Apr2002                   
 POTCAR:    PAW_PBE O 08Apr2002                   
 POTCAR:    PAW_PBE H 15Jun2001                   
 POTCAR:    PAW_PBE Cl 06Sep2000                  
 POTCAR:    PAW_PBE C 08Apr2002                   
   SHA256 =  253f7b50bb8d59471dbedb8285d89021f4a42ed1a2c5d38a03a736e69125dd95 C/
   COPYR  = (c) Copyright 08Apr2002 Georg Kresse                                
   COPYR  = This file is part of the software VASP. Any use, copying, and all ot
   COPYR  = If you do not have a valid VASP license, you may not use, copy or di
   VRHFIN =C: s2p2                                                              
   LEXCH  = PE                                                                  
   EATOM  =   147.1560 eV,   10.8157 Ry                                         
                                                                                
   TITEL  = PAW_PBE C 08Apr2002                                                 
   LULTRA =        F    use ultrasoft PP ?                                      
   IUNSCR =        1    unscreen: 0-lin 1-nonlin 2-no                           
   RPACOR =    1.200    partial core radius                                     
   POMASS =   12.011; ZVAL   =    4.000    mass and valenz                      
   RCORE  =    1.500    outmost cutoff radius                                   
   RWIGS  =    1.630; RWIGS  =    0.863    wigner-seitz radius (au A)           
   ENMAX  =  400.000; ENMIN  =  300.000 eV                                      
   ICORE  =        2    local potential                                         
   LCOR   =        T    correct aug charges                                     
   LPAW   =        T    paw PP                                                  
   EAUG   =  644.873                                                            
   DEXC   =    0.000                                                            
   RMAX   =    1.529    core radius for proj-oper                               
   RAUG   =    1.300    factor for augmentation sphere                          
   RDEP   =    1.501    radius for radial grids                                 
   RDEPT  =    1.300    core radius for aug-charge                              
                                                                                
   Atomic configuration                                                         
    4 entries                                                                   
     n  l   j            E        occ.                                          
     1  0  0.50      -273.3789   2.0000                                         
     2  0  0.50       -13.7508   2.0000                                         
     2  1  0.50        -5.2854   2.0000                                         
     3  2  1.50        -5.4423   0.0000                                         
   Description                                                                  
     l       E           TYP  RCUT    TYP  RCUT                                 
     0    -13.7508458     23  1.200                                             
     0     -8.2022199     23  1.200                                             
     1     -5.2854383     23  1.500                                             
     1     34.0145650     23  1.500                                             
     2     -5.4423304      7  1.500                                             
  local pseudopotential read in
  partial core-charges read in
  partial kinetic energy density read in
  atomic valenz-charges read in
  non local Contribution for L=           0  read in
    real space projection operators read in
  non local Contribution for L=           0  read in
    real space projection operators read in
  non local Contribution for L=           1  read in
    real space projection operators read in
  non local Contribution for L=           1  read in
    real space projection operators read in
    PAW grid and wavefunctions read in
 
   number of l-projection  operators is LMAX  =           4
   number of lm-projection operators is LMMAX =           8
 
 POTCAR:    PAW_PBE O 08Apr2002                   
   SHA256 =  818f92134a0a090dccd8ba1447fa70422a3b330e708bb4f08108d8ae51209ddf O/
   COPYR  = (c) Copyright 08Apr2002 Georg Kresse                                
   COPYR  = This file is part of the software VASP. Any use, copying, and all ot
   COPYR  = If you do not have a valid VASP license, you may not use, copy or di
   VRHFIN =O: s2p4                                                              
   LEXCH  = PE                                                                  
   EATOM  =   432.3788 eV,   31.7789 Ry                                         
                                                                                
   TITEL  = PAW_PBE O 08Apr2002                                                 
   LULTRA =        F    use ultrasoft PP ?                                      
   IUNSCR =        1    unscreen: 0-lin 1-nonlin 2-no                           
   RPACOR =    1.200    partial core radius                                     
   POMASS =   16.000; ZVAL   =    6.000    mass and valenz                      
   RCORE  =    1.520    outmost cutoff radius                                   
   RWIGS  =    1.550; RWIGS  =    0.820    wigner-seitz radius (au A)           
   ENMAX  =  400.000; ENMIN  =  300.000 eV                                      
   ICORE  =        2    local potential                                         
   LCOR   =        T    correct aug charges                                     
   LPAW   =        T    paw PP                                                  
   EAUG   =  605.392                                                            
   DEXC   =    0.000                                                            
   RMAX   =    1.553    core radius for proj-oper                               
   RAUG   =    1.300    factor for augmentation sphere                          
   RDEP   =    1.550    radius for radial grids                                 
   RDEPT  =    1.329    core radius for aug-charge                              
                                                                                
   Atomic configuration                                                         
    4 entries                                                                   
     n  l   j            E        occ.                                          
     1  0  0.50      -514.6923   2.0000                                         
     2  0  0.50       -23.9615   2.0000                                         
     2  1  0.50        -9.0305   4.0000                                         
     3  2  1.50        -9.5241   0.0000                                         
   Description                                                                  
     l       E           TYP  RCUT    TYP  RCUT                                 
     0    -23.9615318     23  1.200                                             
     0     -9.5240782     23  1.200                                             
     1     -9.0304911     23  1.520                                             
     1      8.1634956     23  1.520                                             
     2     -9.5240782      7  1.500                                             
  local pseudopotential read in
  partial core-charges read in
  partial kinetic energy density read in
  kinetic energy density of atom read in
  atomic valenz-charges read in
  non local Contribution for L=           0  read in
    real space projection operators read in
  non local Contribution for L=           0  read in
    real space projection operators read in
  non local Contribution for L=           1  read in
    real space projection operators read in
  non local Contribution for L=           1  read in
    real space projection operators read in
    PAW grid and wavefunctions read in
 
   number of l-projection  operators is LMAX  =           4
   number of lm-projection operators is LMMAX =           8
 
 POTCAR:    PAW_PBE H 15Jun2001                   
   SHA256 =  030f79b5d3ab3cf0e668861823c8fb652ff669f3e15e46930bd03bfd63a607b6 H/
   COPYR  = (c) Copyright 15Jun2001 Georg Kresse                                
   COPYR  = This file is part of the software VASP. Any use, copying, and all ot
   COPYR  = If you do not have a valid VASP license, you may not use, copy or di
   VRHFIN =H: ultrasoft test                                                    
   LEXCH  = PE                                                                  
   EATOM  =    12.4884 eV,    0.9179 Ry                                         
                                                                                
   TITEL  = PAW_PBE H 15Jun2001                                                 
   LULTRA =        F    use ultrasoft PP ?                                      
   IUNSCR =        0    unscreen: 0-lin 1-nonlin 2-no                           
   RPACOR =    0.000    partial core radius                                     
   POMASS =    1.000; ZVAL   =    1.000    mass and valenz                      
   RCORE  =    1.100    outmost cutoff radius                                   
   RWIGS  =    0.700; RWIGS  =    0.370    wigner-seitz radius (au A)           
   ENMAX  =  250.000; ENMIN  =  200.000 eV                                      
   RCLOC  =    0.701    cutoff for local pot                                    
   LCOR   =        T    correct aug charges                                     
   LPAW   =        T    paw PP                                                  
   EAUG   =  400.000                                                            
   RMAX   =    1.123    core radius for proj-oper                               
   RAUG   =    1.200    factor for augmentation sphere                          
   RDEP   =    1.112    radius for radial grids                                 
   RDEPT  =    0.926    core radius for aug-charge                              
                                                                                
   Atomic configuration                                                         
    2 entries                                                                   
     n  l   j            E        occ.                                          
     1  0  0.50        -6.4927   1.0000                                         
     2  1  0.50        -3.4015   0.0000                                         
   Description                                                                  
     l       E           TYP  RCUT    TYP  RCUT                                 
     0     -6.4927494     23  1.100                                             
     0      6.8029130     23  1.100                                             
     1     -4.0817478     23  1.100                                             
  local pseudopotential read in
  atomic valenz-charges read in
  non local Contribution for L=           0  read in
    real space projection operators read in
  non local Contribution for L=           0  read in
    real space projection operators read in
  non local Contribution for L=           1  read in
    real space projection operators read in
    PAW grid and wavefunctions read in
 
   number of l-projection  operators is LMAX  =           3
   number of lm-projection operators is LMMAX =           5
 
 POTCAR:    PAW_PBE Cl 06Sep2000                  
   SHA256 =  9f1b6e6ed4247ac726a768b330d26d7667cc3c95a39ff49c1d064c2d9dcce931 Cl
   COPYR  = (c) Copyright 06Sep2000 Georg Kresse                                
   COPYR  = This file is part of the software VASP. Any use, copying, and all ot
   COPYR  = If you do not have a valid VASP license, you may not use, copy or di
   VRHFIN =Cl: s2p5                                                             
   LEXCH  = PE                                                                  
   EATOM  =   409.7259 eV,   30.1140 Ry                                         
                                                                                
   TITEL  = PAW_PBE Cl 06Sep2000                                                
   LULTRA =        F    use ultrasoft PP ?                                      
   IUNSCR =        1    unscreen: 0-lin 1-nonlin 2-no                           
   RPACOR =    1.500    partial core radius                                     
   POMASS =   35.453; ZVAL   =    7.000    mass and valenz                      
   RCORE  =    1.900    outmost cutoff radius                                   
   RWIGS  =    2.100; RWIGS  =    1.111    wigner-seitz radius (au A)           
   ENMAX  =  262.472; ENMIN  =  196.854 eV                                      
   ICORE  =        2    local potential                                         
   LCOR   =        T    correct aug charges                                     
   LPAW   =        T    paw PP                                                  
   EAUG   =  356.192                                                            
   DEXC   =    0.000                                                            
   RMAX   =    1.945    core radius for proj-oper                               
   RAUG   =    1.300    factor for augmentation sphere                          
   RDEP   =    2.020    radius for radial grids                                 
   RDEPT  =    1.678    core radius for aug-charge                              
                                                                                
   Atomic configuration                                                         
    6 entries                                                                   
     n  l   j            E        occ.                                          
     1  0  0.50     -2751.1850   2.0000                                         
     2  0  0.50      -252.6861   2.0000                                         
     2  1  1.50      -191.6157   6.0000                                         
     3  0  0.50       -20.6916   2.0000                                         
     3  1  0.50        -8.5949   5.0000                                         
     3  2  1.50        -8.1635   0.0000                                         
   Description                                                                  
     l       E           TYP  RCUT    TYP  RCUT                                 
     0    -20.6915656     23  1.900                                             
     0    -22.0521482     23  1.900                                             
     1     -8.5948577     23  1.900                                             
     1     -5.3847331     23  1.900                                             
     2     -8.1634956     23  1.900                                             
  local pseudopotential read in
  partial core-charges read in
  partial kinetic energy density read in
  atomic valenz-charges read in
  non local Contribution for L=           0  read in
    real space projection operators read in
  non local Contribution for L=           0  read in
    real space projection operators read in
  non local Contribution for L=           1  read in
    real space projection operators read in
  non local Contribution for L=           1  read in
    real space projection operators read in
    PAW grid and wavefunctions read in
 
   number of l-projection  operators is LMAX  =           4
   number of lm-projection operators is LMMAX =           8
 

 ----------------------------------------------------------------------------- 
|                                                                             |
|  ADVICE TO THIS USER RUNNING 'VASP/VAMP'   (HEAR YOUR MASTER'S VOICE ...):  |
|                                                                             |
|      You have a (more or less) 'small supercell' and for smaller cells      |
|      it is recommended  to use the reciprocal-space projection scheme!      |
|      The real space optimization is not  efficient for small cells and it   |
|      is also less accurate ...                                              |
|      Therefore set LREAL=.FALSE. in the  INCAR file                         |
|                                                                             |
 ----------------------------------------------------------------------------- 

 Optimization of the real space projectors (new method)

 maximal supplied QI-value         = 25.13
 optimisation between [QCUT,QGAM] = [ 11.81, 23.88] = [ 39.08,159.64] Ry 
 Optimized for a Real-space Cutoff    1.18 Angstroem

   l    n(q)    QCUT    max X(q) W(low)/X(q) W(high)/X(q)  e(spline) 
   0      8    11.813   115.676    0.10E-03    0.13E-03    0.36E-06
   0      8    11.813    87.132    0.10E-03    0.13E-03    0.36E-06
   1      8    11.813     4.429    0.14E-03    0.13E-04    0.22E-06
   1      8    11.813     2.733    0.11E-03    0.10E-04    0.18E-06
 Optimization of the real space projectors (new method)

 maximal supplied QI-value         = 24.76
 optimisation between [QCUT,QGAM] = [ 11.88, 23.77] = [ 39.54,158.16] Ry 
 Optimized for a Real-space Cutoff    1.18 Angstroem

   l    n(q)    QCUT    max X(q) W(low)/X(q) W(high)/X(q)  e(spline) 
   0      8    11.883    20.381    0.77E-04    0.16E-03    0.31E-06
   0      8    11.883    15.268    0.85E-04    0.17E-03    0.34E-06
   1      8    11.883     5.964    0.17E-03    0.30E-04    0.33E-06
   1      8    11.883     5.382    0.15E-03    0.14E-04    0.29E-06
 Optimization of the real space projectors (new method)

 maximal supplied QI-value         = 34.20
 optimisation between [QCUT,QGAM] = [ 11.63, 23.60] = [ 37.87,155.98] Ry 
 Optimized for a Real-space Cutoff    1.18 Angstroem

   l    n(q)    QCUT    max X(q) W(low)/X(q) W(high)/X(q)  e(spline) 
   0      8    11.629    19.460    0.14E-03    0.39E-03    0.21E-06
   0      8    11.629    12.209    0.12E-03    0.36E-03    0.20E-06
   1      8    11.629     4.655    0.22E-03    0.17E-03    0.23E-06
 Optimization of the real space projectors (new method)

 maximal supplied QI-value         = 19.84
 optimisation between [QCUT,QGAM] = [ 11.91, 23.81] = [ 39.69,158.76] Ry 
 Optimized for a Real-space Cutoff    1.22 Angstroem

   l    n(q)    QCUT    max X(q) W(low)/X(q) W(high)/X(q)  e(spline) 
   0      9    11.905   168.010    0.10E-03    0.11E-03    0.59E-07
   0      9    11.905   164.674    0.98E-04    0.11E-03    0.58E-07
   1      8    11.905    69.222    0.15E-03    0.56E-04    0.91E-07
   1      8    11.905    56.786    0.15E-03    0.56E-04    0.89E-07
  PAW_PBE C 08Apr2002                   :
 energy of atom  1       EATOM= -147.1560
 kinetic energy error for atom=    0.0067 (will be added to EATOM!!)
  PAW_PBE O 08Apr2002                   :
 energy of atom  2       EATOM= -432.3788
 kinetic energy error for atom=    0.0196 (will be added to EATOM!!)
  PAW_PBE H 15Jun2001                   :
 energy of atom  3       EATOM=  -12.4884
 kinetic energy error for atom=    0.0009 (will be added to EATOM!!)
  PAW_PBE Cl 06Sep2000                  :
 energy of atom  4       EATOM= -409.7259
 kinetic energy error for atom=    0.0018 (will be added to EATOM!!)
 
 
 POSCAR:  C  O  H Cl                             
  positions in cartesian coordinates
  No initial velocities read in
 exchange correlation table for  LEXCH =        8
   RHO(1)=    0.500       N(1)  =     2000
   RHO(2)=  100.500       N(2)  =     4000

 VTST: version 3.2, (02/03/18)

 CHAIN: initializing optimizer
 
 OPT: Using VASP Dynamics algorithm
 CHAIN: Read ICHAIN            0
 
 POSCAR:  C  O  H Cl                             
  positions in cartesian coordinates
  No initial velocities read in
 


--------------------------------------------------------------------------------------------------------


 ion  position               nearest neighbor table
   1  0.324  0.505  0.328-   4 1.27   3 1.27   2 1.52
   2  0.314  0.512  0.380-   5 1.10   6 1.10   1 1.52   7 1.79
   3  0.327  0.642  0.309-   1 1.27
   4  0.326  0.367  0.309-   1 1.27
   5  0.311  0.638  0.393-   2 1.10
   6  0.189  0.509  0.392-   2 1.10
   7  0.512  0.314  0.405-   2 1.79
 

IMPORTANT INFORMATION: All symmetrisations will be switched off!
NOSYMM: (Re-)initialisation of all symmetry stuff for point group C_1.

 
 
 KPOINTS: K-Point Grid                            

Automatic generation of k-mesh.
Space group operators:
 irot       det(A)        alpha          n_x          n_y          n_z        tau_x        tau_y        tau_z
    1     1.000000     0.000000     1.000000     0.000000     0.000000     0.000000     0.000000     0.000000
 
 Subroutine IBZKPT returns following result:
 ===========================================
 
 Found      1 irreducible k-points:
 
 Following reciprocal coordinates:
            Coordinates               Weight
  0.000000  0.000000  0.000000      1.000000
 
 Following cartesian coordinates:
            Coordinates               Weight
  0.000000  0.000000  0.000000      1.000000
 


--------------------------------------------------------------------------------------------------------




 Dimension of arrays:
   k-points           NKPTS =      1   k-points in BZ     NKDIM =      1   number of bands    NBANDS=     24
   number of dos      NEDOS =    301   number of ions     NIONS =      7
   non local maximal  LDIM  =      4   non local SUM 2l+1 LMDIM =      8
   total plane-waves  NPLWV = 917504
   max r-space proj   IRMAX =   4054   max aug-charges    IRDMAX=  15358
   dimension x,y,z NGX =    64 NGY =   64 NGZ =  224
   dimension x,y,z NGXF=   128 NGYF=  128 NGZF=  448
   support grid    NGXF=   128 NGYF=  128 NGZF=  448
   ions per type =               2   2   2   1
   NGX,Y,Z   is equivalent  to a cutoff of  12.79, 12.79, 12.82 a.u.
   NGXF,Y,Z  is equivalent  to a cutoff of  25.59, 25.59, 25.64 a.u.

 SYSTEM =  DIPOLE RUNS                             
 POSCAR =   C  O  H Cl                             

 Startparameter for this run:
   NWRITE =      2    write-flag & timer
   PREC   = accura    normal or accurate (medium, high low for compatibility)
   ISTART =      0    job   : 0-new  1-cont  2-samecut
   ICHARG =      2    charge: 1-file 2-atom 10-const
   ISPIN  =      2    spin polarized calculation?
   LNONCOLLINEAR =      F non collinear calculations
   LSORBIT =      F    spin-orbit coupling
   INIWAV =      1    electr: 0-lowe 1-rand  2-diag
   LASPH  =      F    aspherical Exc in radial PAW
   METAGGA=      F    non-selfconsistent MetaGGA calc.

 Electronic Relaxation 1
   ENCUT  =  544.0 eV  39.98 Ry    6.32 a.u.  15.81 15.81 55.25*2*pi/ulx,y,z
   ENINI  =  544.0     initial cutoff
   ENAUG  =  644.9 eV  augmentation charge cutoff
   NELM   =    400;   NELMIN=  2; NELMDL= -5     # of ELM steps 
   EDIFF  = 0.1E-04   stopping-criterion for ELM
   LREAL  =      T    real-space projection
   NLSPLINE    = F    spline interpolate recip. space projectors
   LCOMPAT=      F    compatible to vasp.4.4
   GGA_COMPAT  = T    GGA compatible to vasp.4.4-vasp.4.6
   LMAXPAW     = -100 max onsite density
   LMAXMIX     =    2 max onsite mixed and CHGCAR
   VOSKOWN=      0    Vosko Wilk Nusair interpolation
   ROPT   =   -0.00025  -0.00025  -0.00025  -0.00025
 Ionic relaxation
   EDIFFG = -.1E-01   stopping-criterion for IOM
   NSW    =      0    number of steps for IOM
   NBLOCK =      1;   KBLOCK =      1    inner block; outer block 
   IBRION =     -1    ionic relax: 0-MD 1-quasi-New 2-CG
   NFREE  =      0    steps in history (QN), initial steepest desc. (CG)
   ISIF   =      2    stress and relaxation
   IWAVPR =     10    prediction:  0-non 1-charg 2-wave 3-comb
   ISYM   =      0    0-nonsym 1-usesym 2-fastsym
   LCORR  =      T    Harris-Foulkes like correction to forces

   POTIM  = 0.5000    time-step for ionic-motion
   TEIN   =    0.0    initial temperature
   TEBEG  =    0.0;   TEEND  =   0.0 temperature during run
   SMASS  =  -3.00    Nose mass-parameter (am)
   estimated Nose-frequenzy (Omega)   =  0.10E-29 period in steps =****** mass=  -0.158E-26a.u.
   SCALEE = 1.0000    scale energy and forces
   NPACO  =    256;   APACO  = 16.0  distance and # of slots for P.C.
   PSTRESS=    0.0 pullay stress

  Mass of Ions in am
   POMASS =  12.01 16.00  1.00 35.45
  Ionic Valenz
   ZVAL   =   4.00  6.00  1.00  7.00
  Atomic Wigner-Seitz radii
   RWIGS  =  -1.00 -1.00 -1.00 -1.00
  virtual crystal weights 
   VCA    =   1.00  1.00  1.00  1.00
   NELECT =      29.0000    total number of electrons
   NUPDOWN=      -1.0000    fix difference up-down

 DOS related values:
   EMIN   =  10.00;   EMAX   =-10.00  energy-range for DOS
   EFERMI =   0.00
   ISMEAR =     0;   SIGMA  =   0.00  broadening in eV -4-tet -1-fermi 0-gaus

 Electronic relaxation 2 (details)
   IALGO  =     68    algorithm
   LDIAG  =      T    sub-space diagonalisation (order eigenvalues)
   LSUBROT=      F    optimize rotation matrix (better conditioning)
   TURBO    =      0    0=normal 1=particle mesh
   IRESTART =      0    0=no restart 2=restart with 2 vectors
   NREBOOT  =      0    no. of reboots
   NMIN     =      0    reboot dimension
   EREF     =   0.00    reference energy to select bands
   IMIX   =      4    mixing-type and parameters
     AMIX     =   0.40;   BMIX     =  1.00
     AMIX_MAG =   1.60;   BMIX_MAG =  1.00
     AMIN     =   0.10
     WC   =   100.;   INIMIX=   1;  MIXPRE=   1;  MAXMIX= -45

 Intra band minimization:
   WEIMIN = 0.0000     energy-eigenvalue tresh-hold
   EBREAK =  0.10E-06  absolut break condition
   DEPER  =   0.30     relativ break condition  

   TIME   =   0.40     timestep for ELM

  volume/ion in A,a.u.               =     248.55      1677.28
  Fermi-wavevector in a.u.,A,eV,Ry     =   0.418189  0.790262  2.379410  0.174882
  Thomas-Fermi vector in A             =   1.378923
 
 Write flags
   LWAVE        =      F    write WAVECAR
   LDOWNSAMPLE  =      F    k-point downsampling of WAVECAR
   LCHARG       =      F    write CHGCAR
   LVTOT        =      F    write LOCPOT, total local potential
   LVHAR        =      F    write LOCPOT, Hartree potential only
   LELF         =      F    write electronic localiz. function (ELF)
   LORBIT       =      0    0 simple, 1 ext, 2 COOP (PROOUT), +10 PAW based schemes


 Dipole corrections
   LMONO  =      F    monopole corrections only (constant potential shift)
   LDIPOL =      T    correct potential (dipole corrections)
   IDIPOL =      3    1-x, 2-y, 3-z, 4-all directions 
   EPSILON=  1.0000000 bulk dielectric constant

 Exchange correlation treatment:
   GGA     =    PE    GGA type
   LEXCH   =     8    internal setting for exchange type
   VOSKOWN=      0    Vosko Wilk Nusair interpolation
   LHFCALC =     F    Hartree Fock is set to
   LHFONE  =     F    Hartree Fock one center treatment
   AEXX    =    0.0000 exact exchange contribution

 Linear response parameters
   LEPSILON=     F    determine dielectric tensor
   LRPA    =     F    only Hartree local field effects (RPA)
   LNABLA  =     F    use nabla operator in PAW spheres
   LVEL    =     F    velocity operator in full k-point grid
   LINTERFAST=   F  fast interpolation
   KINTER  =     0    interpolate to denser k-point grid
   CSHIFT  =0.1000    complex shift for real part using Kramers Kronig
   OMEGAMAX=  -1.0    maximum frequency
   DEG_THRESHOLD= 0.2000000E-02 threshold for treating states as degnerate
   RTIME   =   -0.100 relaxation time in fs
  (WPLASMAI=    0.000 imaginary part of plasma frequency in eV, 0.658/RTIME)
   DFIELD  = 0.0000000 0.0000000 0.0000000 field for delta impulse in time
 
 Orbital magnetization related:
   ORBITALMAG=     F  switch on orbital magnetization
   LCHIMAG   =     F  perturbation theory with respect to B field
   DQ        =  0.001000  dq finite difference perturbation B field
   LLRAUG    =     F  two centre corrections for induced B field



--------------------------------------------------------------------------------------------------------


 Static calculation
 charge density and potential will be updated during run
 spin polarized calculation
 RMM-DIIS sequential band-by-band and
  variant of blocked Davidson during initial phase
 perform sub-space diagonalisation
    before iterative eigenvector-optimisation
 modified Broyden-mixing scheme, WC =      100.0
 initial mixing is a Kerker type mixing with AMIX =  0.4000 and BMIX =      1.0000
 Hartree-type preconditioning will be used
 using additional bands            9
 real space projection scheme for non local part
 use partial core corrections
 calculate Harris-corrections to forces 
   (improved forces if not selfconsistent)
 use gradient corrections 
 use of overlap-Matrix (Vanderbilt PP)
 Gauss-broadening in eV      SIGMA  =   0.00


--------------------------------------------------------------------------------------------------------


  energy-cutoff  :      544.00
  volume of cell :     1739.83
      direct lattice vectors                 reciprocal lattice vectors
     8.315596000  0.000000000  0.000000000     0.120255962 -0.069429620  0.000000000
     4.157788000  7.201520000  0.000000000     0.000000000  0.138859574  0.000000000
     0.000000000  0.000000000 29.052834000     0.000000000  0.000000000  0.034420050

  length of vectors
     8.315596000  8.315593266 29.052834000     0.138859528  0.138859574  0.034420050


 
 k-points in units of 2pi/SCALE and weight: K-Point Grid                            
   0.00000000  0.00000000  0.00000000       1.000
 
 k-points in reciprocal lattice and weights: K-Point Grid                            
   0.00000000  0.00000000  0.00000000       1.000
 
 position of ions in fractional coordinates (direct lattice) 
   0.32359901  0.50521945  0.32813900
   0.31364828  0.51233170  0.38043407
   0.32652118  0.64153290  0.30905171
   0.32558846  0.36656845  0.30920467
   0.31140487  0.63760151  0.39312148
   0.18920129  0.50876801  0.39171404
   0.51197781  0.31373349  0.40459674
 
 position of ions in cartesian coordinates  (Angst):
   4.79151400  3.63834800  9.53336800
   4.73833900  3.68956700 11.05268800
   5.38257600  4.62001200  8.97882800
   4.23157600  2.63985000  8.98327200
   5.24052900  4.59170000 11.42129300
   3.68867100  3.66390300 11.38040300
   5.56183800  2.25935800 11.75468200
 


--------------------------------------------------------------------------------------------------------


 k-point  1 :   0.0000 0.0000 0.0000  plane waves:   50139

 maximum and minimum number of plane-waves per node :     12536    12533

 maximum number of plane-waves:     50139
 maximum index in each direction: 
   IXMAX=   15   IYMAX=   15   IZMAX=   55
   IXMIN=  -15   IYMIN=  -15   IZMIN=  -55


 real space projection operators:
  total allocation   :       1411.39 KBytes
  max/ min on nodes  :        355.60        349.80


 parallel 3D FFT for wavefunctions:
    minimum data exchange during FFTs selected (reduces bandwidth)
 parallel 3D FFT for charge:
    minimum data exchange during FFTs selected (reduces bandwidth)


 total amount of memory used by VASP MPI-rank0   118138. kBytes
=======================================================================

   base      :      30000. kBytes
   nonlr-proj:        913. kBytes
   fftplans  :      22218. kBytes
   grid      :      62586. kBytes
   one-center:         12. kBytes
   wavefun   :       2409. kBytes
 
     INWAV:  cpu time    0.0000: real time    0.0002
 Broyden mixing: mesh for mixing (old mesh)
   NGX = 31   NGY = 31   NGZ =111
  (NGX  =128   NGY  =128   NGZ  =448)
  gives a total of 106671 points

 initial charge density was supplied:
 charge density of overlapping atoms calculated
 number of electron      29.0000000 magnetization       7.0000000
 keeping initial charge density in first step


--------------------------------------------------------------------------------------------------------


 Maximum index for non-local projection operator          969
 Maximum index for augmentation-charges          821 (set IRDMAX)


--------------------------------------------------------------------------------------------------------


 First call to EWALD:  gamma=   0.147
 Maximum number of real-space cells 4x 4x 1
 Maximum number of reciprocal cells 2x 2x 6

    FEWALD:  cpu time    0.0013: real time    0.0013


--------------------------------------- Iteration      1(   1)  ---------------------------------------


    POTLOK:  cpu time    0.7459: real time    0.7528
    SETDIJ:  cpu time    0.0122: real time    0.0123
     EDDAV:  cpu time    0.9035: real time    0.9089
       DOS:  cpu time    0.0004: real time    0.0003
    --------------------------------------------
      LOOP:  cpu time    1.6620: real time    1.6743

 eigenvalue-minimisations  :   120
 total energy-change (2. order) : 0.2524653E+03  (-0.7355412E+03)
 number of electron      29.0000000 magnetization       7.0000000
 augmentation part       29.0000000 magnetization       7.0000000

 DIPCOR: dipole corrections for dipol
 direction  3 min pos   269,
 dipolmoment           0.000000      0.000000     -0.000374 electrons x Angstroem
 Tr[quadrupol]      -580.873863

 energy correction for charged system         0.000000 eV
 dipol+quadrupol energy correction           -0.000000 eV
 added-field ion interaction          0.008261 eV  (added to PSCEN)


 Free energy of the ion-electron system (eV)
  ---------------------------------------------------
  alpha Z        PSCENC =         2.04905143
  Ewald energy   TEWEN  =      2286.39599691
  -Hartree energ DENC   =     -3561.16240737
  -exchange      EXHF   =         0.00000000
  -V(xc)+E(xc)   XCENC  =       106.67422784
  PAW double counting   =      1238.37845729    -1243.21459068
  entropy T*S    EENTRO =         0.00000000
  eigenvalues    EBANDS =      -170.37150188
  atomic energy  EATOM  =      1593.71602445
  Solvation  Ecorr_sol  =         0.00000000
  ---------------------------------------------------
  free energy    TOTEN  =       252.46525799 eV

  energy without entropy =      252.46525799  energy(sigma->0) =      252.46525799


--------------------------------------------------------------------------------------------------------




--------------------------------------- Iteration      1(   2)  ---------------------------------------


     EDDAV:  cpu time    1.4311: real time    1.4404
       DOS:  cpu time    0.0001: real time    0.0001
    --------------------------------------------
      LOOP:  cpu time    1.4312: real time    1.4405

 eigenvalue-minimisations  :   168
 total energy-change (2. order) :-0.1904239E+03  (-0.1806572E+03)
 number of electron      29.0000000 magnetization       7.0000000
 augmentation part       29.0000000 magnetization       7.0000000

 DIPCOR: dipole corrections for dipol
 direction  3 min pos   269,
 dipolmoment           0.000000      0.000000     -0.000374 electrons x Angstroem
 Tr[quadrupol]      -580.873863

 energy correction for charged system         0.000000 eV
 dipol+quadrupol energy correction           -0.000000 eV
 added-field ion interaction          0.008261 eV  (added to PSCEN)


 Free energy of the ion-electron system (eV)
  ---------------------------------------------------
  alpha Z        PSCENC =         2.04905143
  Ewald energy   TEWEN  =      2286.39599691
  -Hartree energ DENC   =     -3561.16240737
  -exchange      EXHF   =         0.00000000
  -V(xc)+E(xc)   XCENC  =       106.67422784
  PAW double counting   =      1238.37845729    -1243.21459068
  entropy T*S    EENTRO =        -0.00000000
  eigenvalues    EBANDS =      -360.79537333
  atomic energy  EATOM  =      1593.71602445
  Solvation  Ecorr_sol  =         0.00000000
  ---------------------------------------------------
  free energy    TOTEN  =        62.04138655 eV

  energy without entropy =       62.04138655  energy(sigma->0) =       62.04138655


--------------------------------------------------------------------------------------------------------




--------------------------------------- Iteration      1(   3)  ---------------------------------------


     EDDAV:  cpu time    0.9806: real time    0.9873
       DOS:  cpu time    0.0003: real time    0.0003
    --------------------------------------------
      LOOP:  cpu time    0.9809: real time    0.9876

 eigenvalue-minimisations  :   136
 total energy-change (2. order) :-0.9233688E+02  (-0.9169557E+02)
 number of electron      29.0000000 magnetization       7.0000000
 augmentation part       29.0000000 magnetization       7.0000000

 DIPCOR: dipole corrections for dipol
 direction  3 min pos   269,
 dipolmoment           0.000000      0.000000     -0.000374 electrons x Angstroem
 Tr[quadrupol]      -580.873863

 energy correction for charged system         0.000000 eV
 dipol+quadrupol energy correction           -0.000000 eV
 added-field ion interaction          0.008261 eV  (added to PSCEN)


 Free energy of the ion-electron system (eV)
  ---------------------------------------------------
  alpha Z        PSCENC =         2.04905143
  Ewald energy   TEWEN  =      2286.39599691
  -Hartree energ DENC   =     -3561.16240737
  -exchange      EXHF   =         0.00000000
  -V(xc)+E(xc)   XCENC  =       106.67422784
  PAW double counting   =      1238.37845729    -1243.21459068
  entropy T*S    EENTRO =        -0.00000000
  eigenvalues    EBANDS =      -453.13225528
  atomic energy  EATOM  =      1593.71602445
  Solvation  Ecorr_sol  =         0.00000000
  ---------------------------------------------------
  free energy    TOTEN  =       -30.29549540 eV

  energy without entropy =      -30.29549540  energy(sigma->0) =      -30.29549540


--------------------------------------------------------------------------------------------------------




--------------------------------------- Iteration      1(   4)  ---------------------------------------


     EDDAV:  cpu time    0.9907: real time    0.9962
       DOS:  cpu time    0.0001: real time    0.0001
    --------------------------------------------
      LOOP:  cpu time    0.9908: real time    0.9963

 eigenvalue-minimisations  :   136
 total energy-change (2. order) :-0.7598807E+01  (-0.7579721E+01)
 number of electron      29.0000000 magnetization       7.0000000
 augmentation part       29.0000000 magnetization       7.0000000

 DIPCOR: dipole corrections for dipol
 direction  3 min pos   269,
 dipolmoment           0.000000      0.000000     -0.000374 electrons x Angstroem
 Tr[quadrupol]      -580.873863

 energy correction for charged system         0.000000 eV
 dipol+quadrupol energy correction           -0.000000 eV
 added-field ion interaction          0.008261 eV  (added to PSCEN)


 Free energy of the ion-electron system (eV)
  ---------------------------------------------------
  alpha Z        PSCENC =         2.04905143
  Ewald energy   TEWEN  =      2286.39599691
  -Hartree energ DENC   =     -3561.16240737
  -exchange      EXHF   =         0.00000000
  -V(xc)+E(xc)   XCENC  =       106.67422784
  PAW double counting   =      1238.37845729    -1243.21459068
  entropy T*S    EENTRO =        -0.00000000
  eigenvalues    EBANDS =      -460.73106207
  atomic energy  EATOM  =      1593.71602445
  Solvation  Ecorr_sol  =         0.00000000
  ---------------------------------------------------
  free energy    TOTEN  =       -37.89430219 eV

  energy without entropy =      -37.89430219  energy(sigma->0) =      -37.89430219


--------------------------------------------------------------------------------------------------------




--------------------------------------- Iteration      1(   5)  ---------------------------------------


     EDDAV:  cpu time    0.8985: real time    0.9038
       DOS:  cpu time    0.0001: real time    0.0001
    CHARGE:  cpu time    0.0974: real time    0.0979
    MIXING:  cpu time    0.0210: real time    0.0211
    --------------------------------------------
      LOOP:  cpu time    1.0170: real time    1.0230

 eigenvalue-minimisations  :   120
 total energy-change (2. order) :-0.6700688E-01  (-0.6698427E-01)
 number of electron      28.9999992 magnetization       6.5710546
 augmentation part        0.8304511 magnetization       5.5732724

 DIPCOR: dipole corrections for dipol
 direction  3 min pos   269,
 dipolmoment           0.000000      0.000000     -0.000374 electrons x Angstroem
 Tr[quadrupol]      -580.873863

 energy correction for charged system         0.000000 eV
 dipol+quadrupol energy correction           -0.000000 eV
 added-field ion interaction          0.008261 eV  (added to PSCEN)


 Broyden mixing:
  rms(total) = 0.20247E+01    rms(broyden)= 0.20243E+01
  rms(prec ) = 0.20706E+01
  weight for this iteration     100.00

 Free energy of the ion-electron system (eV)
  ---------------------------------------------------
  alpha Z        PSCENC =         2.04905143
  Ewald energy   TEWEN  =      2286.39599691
  -Hartree energ DENC   =     -3561.16240737
  -exchange      EXHF   =         0.00000000
  -V(xc)+E(xc)   XCENC  =       106.67422784
  PAW double counting   =      1238.37845729    -1243.21459068
  entropy T*S    EENTRO =        -0.00000000
  eigenvalues    EBANDS =      -460.79806895
  atomic energy  EATOM  =      1593.71602445
  Solvation  Ecorr_sol  =         0.00000000
  ---------------------------------------------------
  free energy    TOTEN  =       -37.96130907 eV

  energy without entropy =      -37.96130907  energy(sigma->0) =      -37.96130907


--------------------------------------------------------------------------------------------------------




--------------------------------------- Iteration      1(   6)  ---------------------------------------


    POTLOK:  cpu time    0.7464: real time    0.7506
    SETDIJ:  cpu time    0.0118: real time    0.0118
    EDDIAG:  cpu time    0.1647: real time    0.1655
  RMM-DIIS:  cpu time    0.6997: real time    0.7035
    ORTHCH:  cpu time    0.0108: real time    0.0109
       DOS:  cpu time    0.0002: real time    0.0002
    CHARGE:  cpu time    0.0997: real time    0.1003
    MIXING:  cpu time    0.0196: real time    0.0197
    --------------------------------------------
      LOOP:  cpu time    1.7528: real time    1.7624

 eigenvalue-minimisations  :   117
 total energy-change (2. order) : 0.1719534E+02  (-0.3696656E+01)
 number of electron      28.9999994 magnetization       6.2710194
 augmentation part        0.3762527 magnetization       5.3954825

 DIPCOR: dipole corrections for dipol
 direction  3 min pos   269,
 dipolmoment           0.000000      0.000000     -0.198877 electrons x Angstroem
 Tr[quadrupol]      -585.533215

 energy correction for charged system         0.000000 eV
 dipol+quadrupol energy correction           -0.002057 eV
 added-field ion interaction          4.394474 eV  (added to PSCEN)


 Broyden mixing:
  rms(total) = 0.11526E+01    rms(broyden)= 0.11521E+01
  rms(prec ) = 0.11705E+01
  weight for this iteration     100.00

 eigenvalues of (default mixing * dielectric matrix)
  average eigenvalue GAMMA=   0.6843
  0.6843

 Free energy of the ion-electron system (eV)
  ---------------------------------------------------
  alpha Z        PSCENC =         6.43320796
  Ewald energy   TEWEN  =      2286.39599691
  -Hartree energ DENC   =     -3609.14099152
  -exchange      EXHF   =         0.00000000
  -V(xc)+E(xc)   XCENC  =       122.53632700
  PAW double counting   =      1628.99569879    -1634.41816717
  entropy T*S    EENTRO =         0.00000000
  eigenvalues    EBANDS =      -415.28406888
  atomic energy  EATOM  =      1593.71602445
  Solvation  Ecorr_sol  =         0.00000000
  ---------------------------------------------------
  free energy    TOTEN  =       -20.76597246 eV

  energy without entropy =      -20.76597246  energy(sigma->0) =      -20.76597246


--------------------------------------------------------------------------------------------------------




--------------------------------------- Iteration      1(   7)  ---------------------------------------


    POTLOK:  cpu time    0.7414: real time    0.7455
    SETDIJ:  cpu time    0.0108: real time    0.0109
    EDDIAG:  cpu time    0.1636: real time    0.1644
  RMM-DIIS:  cpu time    0.7298: real time    0.7334
    ORTHCH:  cpu time    0.0105: real time    0.0106
       DOS:  cpu time    0.0002: real time    0.0002
    CHARGE:  cpu time    0.0976: real time    0.0981
    MIXING:  cpu time    0.0206: real time    0.0207
    --------------------------------------------
      LOOP:  cpu time    1.7747: real time    1.7839

 eigenvalue-minimisations  :   121
 total energy-change (2. order) :-0.7076372E+01  (-0.7200595E+00)
 number of electron      28.9999994 magnetization       5.7880860
 augmentation part        0.4117230 magnetization       4.9654614

 DIPCOR: dipole corrections for dipol
 direction  3 min pos   269,
 dipolmoment           0.000000      0.000000     -0.176563 electrons x Angstroem
 Tr[quadrupol]      -585.097959

 energy correction for charged system         0.000000 eV
 dipol+quadrupol energy correction           -0.001621 eV
 added-field ion interaction          3.901401 eV  (added to PSCEN)


 Broyden mixing:
  rms(total) = 0.62166E+00    rms(broyden)= 0.62159E+00
  rms(prec ) = 0.63484E+00
  weight for this iteration     100.00

 eigenvalues of (default mixing * dielectric matrix)
  average eigenvalue GAMMA=   0.9271
  0.9271  0.9271

 Free energy of the ion-electron system (eV)
  ---------------------------------------------------
  alpha Z        PSCENC =         5.94057028
  Ewald energy   TEWEN  =      2286.39599691
  -Hartree energ DENC   =     -3614.03522667
  -exchange      EXHF   =         0.00000000
  -V(xc)+E(xc)   XCENC  =       117.33814365
  PAW double counting   =      1810.95086580    -1816.36345728
  entropy T*S    EENTRO =        -0.00000000
  eigenvalues    EBANDS =      -411.78526178
  atomic energy  EATOM  =      1593.71602445
  Solvation  Ecorr_sol  =         0.00000000
  ---------------------------------------------------
  free energy    TOTEN  =       -27.84234463 eV

  energy without entropy =      -27.84234463  energy(sigma->0) =      -27.84234463


--------------------------------------------------------------------------------------------------------




--------------------------------------- Iteration      1(   8)  ---------------------------------------


    POTLOK:  cpu time    0.7430: real time    0.7476
    SETDIJ:  cpu time    0.0111: real time    0.0111
    EDDIAG:  cpu time    0.1646: real time    0.1655
  RMM-DIIS:  cpu time    0.6956: real time    0.6991
    ORTHCH:  cpu time    0.0112: real time    0.0112
       DOS:  cpu time    0.0002: real time    0.0002
    CHARGE:  cpu time    0.0985: real time    0.0990
    MIXING:  cpu time    0.0229: real time    0.0230
    --------------------------------------------
      LOOP:  cpu time    1.7469: real time    1.7566

 eigenvalue-minimisations  :   118
 total energy-change (2. order) :-0.3842609E+01  (-0.2954686E+00)
 number of electron      28.9999993 magnetization       5.6248598
 augmentation part        0.5489647 magnetization       4.7535382

 DIPCOR: dipole corrections for dipol
 direction  3 min pos   269,
 dipolmoment           0.000000      0.000000     -0.166504 electrons x Angstroem
 Tr[quadrupol]      -584.763367

 energy correction for charged system         0.000000 eV
 dipol+quadrupol energy correction           -0.001442 eV
 added-field ion interaction          3.679144 eV  (added to PSCEN)


 Broyden mixing:
  rms(total) = 0.66697E+00    rms(broyden)= 0.66611E+00
  rms(prec ) = 0.68031E+00
  weight for this iteration     100.00

 eigenvalues of (default mixing * dielectric matrix)
  average eigenvalue GAMMA=   0.7262
  1.0359  0.7699  0.3728

 Free energy of the ion-electron system (eV)
  ---------------------------------------------------
  alpha Z        PSCENC =         5.71849314
  Ewald energy   TEWEN  =      2286.39599691
  -Hartree energ DENC   =     -3619.59696560
  -exchange      EXHF   =         0.00000000
  -V(xc)+E(xc)   XCENC  =       114.43081697
  PAW double counting   =      2049.31310934    -2054.78088516
  entropy T*S    EENTRO =        -0.00000000
  eigenvalues    EBANDS =      -406.88154416
  atomic energy  EATOM  =      1593.71602445
  Solvation  Ecorr_sol  =         0.00000000
  ---------------------------------------------------
  free energy    TOTEN  =       -31.68495412 eV

  energy without entropy =      -31.68495412  energy(sigma->0) =      -31.68495412


--------------------------------------------------------------------------------------------------------




--------------------------------------- Iteration      1(   9)  ---------------------------------------


    POTLOK:  cpu time    0.7324: real time    0.7375
    SETDIJ:  cpu time    0.0126: real time    0.0127
    EDDIAG:  cpu time    0.1628: real time    0.1636
  RMM-DIIS:  cpu time    0.7684: real time    0.7721
    ORTHCH:  cpu time    0.0114: real time    0.0115
       DOS:  cpu time    0.0002: real time    0.0002
    CHARGE:  cpu time    0.0990: real time    0.0995
    MIXING:  cpu time    0.0221: real time    0.0223
    --------------------------------------------
      LOOP:  cpu time    1.8089: real time    1.8193

 eigenvalue-minimisations  :   120
 total energy-change (2. order) :-0.7036210E+00  (-0.6362275E-01)
 number of electron      28.9999993 magnetization       5.4555625
 augmentation part        0.5129843 magnetization       4.6065444

 DIPCOR: dipole corrections for dipol
 direction  3 min pos   269,
 dipolmoment           0.000000      0.000000     -0.191743 electrons x Angstroem
 Tr[quadrupol]      -585.248738

 energy correction for charged system         0.000000 eV
 dipol+quadrupol energy correction           -0.001912 eV
 added-field ion interaction          4.236834 eV  (added to PSCEN)


 Broyden mixing:
  rms(total) = 0.67927E+00    rms(broyden)= 0.67798E+00
  rms(prec ) = 0.69221E+00
  weight for this iteration     100.00

 eigenvalues of (default mixing * dielectric matrix)
  average eigenvalue GAMMA=   0.6797
  1.0883  0.7026  0.7026  0.2253

 Free energy of the ion-electron system (eV)
  ---------------------------------------------------
  alpha Z        PSCENC =         6.27571246
  Ewald energy   TEWEN  =      2286.39599691
  -Hartree energ DENC   =     -3623.32546823
  -exchange      EXHF   =         0.00000000
  -V(xc)+E(xc)   XCENC  =       114.11024328
  PAW double counting   =      2111.18636837    -2116.67648011
  entropy T*S    EENTRO =        -0.00000000
  eigenvalues    EBANDS =      -404.07097222
  atomic energy  EATOM  =      1593.71602445
  Solvation  Ecorr_sol  =         0.00000000
  ---------------------------------------------------
  free energy    TOTEN  =       -32.38857509 eV

  energy without entropy =      -32.38857509  energy(sigma->0) =      -32.38857509


--------------------------------------------------------------------------------------------------------




--------------------------------------- Iteration      1(  10)  ---------------------------------------


    POTLOK:  cpu time    0.7354: real time    0.7412
    SETDIJ:  cpu time    0.0141: real time    0.0142
    EDDIAG:  cpu time    0.1667: real time    0.1675
  RMM-DIIS:  cpu time    0.7275: real time    0.7312
    ORTHCH:  cpu time    0.0110: real time    0.0110
       DOS:  cpu time    0.0002: real time    0.0002
    CHARGE:  cpu time    0.0980: real time    0.0989
    MIXING:  cpu time    0.0169: real time    0.0224
    --------------------------------------------
      LOOP:  cpu time    1.7698: real time    1.7867

 eigenvalue-minimisations  :   119
 total energy-change (2. order) :-0.6600834E+00  (-0.3499149E-01)
 number of electron      28.9999993 magnetization       5.0376255
 augmentation part        0.5056815 magnetization       4.1802806

 DIPCOR: dipole corrections for dipol
 direction  3 min pos   269,
 dipolmoment           0.000000      0.000000     -0.213128 electrons x Angstroem
 Tr[quadrupol]      -585.630066

 energy correction for charged system         0.000000 eV
 dipol+quadrupol energy correction           -0.002362 eV
 added-field ion interaction          4.709363 eV  (added to PSCEN)


 Broyden mixing:
  rms(total) = 0.36816E+00    rms(broyden)= 0.36730E+00
  rms(prec ) = 0.37322E+00
  weight for this iteration     100.00

 eigenvalues of (default mixing * dielectric matrix)
  average eigenvalue GAMMA=   0.8387
  1.1710  1.0755  0.8781  0.8781  0.1910

 Free energy of the ion-electron system (eV)
  ---------------------------------------------------
  alpha Z        PSCENC =         6.74779091
  Ewald energy   TEWEN  =      2286.39599691
  -Hartree energ DENC   =     -3625.86199898
  -exchange      EXHF   =         0.00000000
  -V(xc)+E(xc)   XCENC  =       113.72702395
  PAW double counting   =      2165.33200923    -2170.83619400
  entropy T*S    EENTRO =        -0.00000000
  eigenvalues    EBANDS =      -402.26931096
  atomic energy  EATOM  =      1593.71602445
  Solvation  Ecorr_sol  =         0.00000000
  ---------------------------------------------------
  free energy    TOTEN  =       -33.04865848 eV

  energy without entropy =      -33.04865848  energy(sigma->0) =      -33.04865848


--------------------------------------------------------------------------------------------------------




--------------------------------------- Iteration      1(  11)  ---------------------------------------


    POTLOK:  cpu time    0.7383: real time    0.7429
    SETDIJ:  cpu time    0.0120: real time    0.0121
    EDDIAG:  cpu time    0.1669: real time    0.1679
  RMM-DIIS:  cpu time    0.6739: real time    0.6773
    ORTHCH:  cpu time    0.0107: real time    0.0107
       DOS:  cpu time    0.0002: real time    0.0002
    CHARGE:  cpu time    0.0989: real time    0.0994
    MIXING:  cpu time    0.0229: real time    0.0230
    --------------------------------------------
      LOOP:  cpu time    1.7237: real time    1.7335

 eigenvalue-minimisations  :   109
 total energy-change (2. order) :-0.1348573E+01  (-0.3942311E-01)
 number of electron      28.9999993 magnetization       4.5881550
 augmentation part        0.4768971 magnetization       3.7486372

 DIPCOR: dipole corrections for dipol
 direction  3 min pos   269,
 dipolmoment           0.000000      0.000000     -0.259404 electrons x Angstroem
 Tr[quadrupol]      -586.392259

 energy correction for charged system         0.000000 eV
 dipol+quadrupol energy correction           -0.003499 eV
 added-field ion interaction          5.731895 eV  (added to PSCEN)


 Broyden mixing:
  rms(total) = 0.40265E+00    rms(broyden)= 0.40223E+00
  rms(prec ) = 0.41158E+00
  weight for this iteration     100.00

 eigenvalues of (default mixing * dielectric matrix)
  average eigenvalue GAMMA=   0.9433
  2.0139  0.9125  0.9125  0.8274  0.7951  0.1982

 Free energy of the ion-electron system (eV)
  ---------------------------------------------------
  alpha Z        PSCENC =         7.76918638
  Ewald energy   TEWEN  =      2286.39599691
  -Hartree energ DENC   =     -3627.92480945
  -exchange      EXHF   =         0.00000000
  -V(xc)+E(xc)   XCENC  =       112.70721155
  PAW double counting   =      2252.49598641    -2257.97135227
  entropy T*S    EENTRO =        -0.00000000
  eigenvalues    EBANDS =      -401.58547582
  atomic energy  EATOM  =      1593.71602445
  Solvation  Ecorr_sol  =         0.00000000
  ---------------------------------------------------
  free energy    TOTEN  =       -34.39723183 eV

  energy without entropy =      -34.39723183  energy(sigma->0) =      -34.39723183


--------------------------------------------------------------------------------------------------------




--------------------------------------- Iteration      1(  12)  ---------------------------------------


    POTLOK:  cpu time    0.7478: real time    0.7523
    SETDIJ:  cpu time    0.0120: real time    0.0120
    EDDIAG:  cpu time    0.1656: real time    0.1665
  RMM-DIIS:  cpu time    0.6823: real time    0.6858
    ORTHCH:  cpu time    0.0109: real time    0.0110
       DOS:  cpu time    0.0002: real time    0.0002
    CHARGE:  cpu time    0.0982: real time    0.0988
    MIXING:  cpu time    0.0256: real time    0.0257
    --------------------------------------------
      LOOP:  cpu time    1.7426: real time    1.7522

 eigenvalue-minimisations  :   110
 total energy-change (2. order) :-0.1240529E+01  (-0.2937984E-01)
 number of electron      28.9999994 magnetization       4.5010099
 augmentation part        0.4563216 magnetization       3.6976916

 DIPCOR: dipole corrections for dipol
 direction  3 min pos   269,
 dipolmoment           0.000000      0.000000     -0.288161 electrons x Angstroem
 Tr[quadrupol]      -586.744256

 energy correction for charged system         0.000000 eV
 dipol+quadrupol energy correction           -0.004318 eV
 added-field ion interaction          6.367322 eV  (added to PSCEN)


 Broyden mixing:
  rms(total) = 0.77722E+00    rms(broyden)= 0.77517E+00
  rms(prec ) = 0.79528E+00
  weight for this iteration     100.00

 eigenvalues of (default mixing * dielectric matrix)
  average eigenvalue GAMMA=   0.8861
  2.0747  0.9010  0.9010  0.8049  0.8049  0.5141  0.2020

 Free energy of the ion-electron system (eV)
  ---------------------------------------------------
  alpha Z        PSCENC =         8.40379407
  Ewald energy   TEWEN  =      2286.39599691
  -Hartree energ DENC   =     -3628.62538132
  -exchange      EXHF   =         0.00000000
  -V(xc)+E(xc)   XCENC  =       111.86043086
  PAW double counting   =      2322.74887820    -2328.19547863
  entropy T*S    EENTRO =        -0.00000000
  eigenvalues    EBANDS =      -401.94202506
  atomic energy  EATOM  =      1593.71602445
  Solvation  Ecorr_sol  =         0.00000000
  ---------------------------------------------------
  free energy    TOTEN  =       -35.63776052 eV

  energy without entropy =      -35.63776052  energy(sigma->0) =      -35.63776052


--------------------------------------------------------------------------------------------------------




--------------------------------------- Iteration      1(  13)  ---------------------------------------


    POTLOK:  cpu time    0.7464: real time    0.7514
    SETDIJ:  cpu time    0.0124: real time    0.0124
    EDDIAG:  cpu time    0.1656: real time    0.1664
  RMM-DIIS:  cpu time    0.7208: real time    0.7250
    ORTHCH:  cpu time    0.0099: real time    0.0645
       DOS:  cpu time    0.0002: real time    0.0002
    CHARGE:  cpu time    0.0950: real time    0.0955
    MIXING:  cpu time    0.0248: real time    0.0250
    --------------------------------------------
      LOOP:  cpu time    1.7752: real time    1.8404

 eigenvalue-minimisations  :   118
 total energy-change (2. order) : 0.4517935E-01  (-0.8238905E-02)
 number of electron      28.9999994 magnetization       4.4944701
 augmentation part        0.4424356 magnetization       3.7069108

 DIPCOR: dipole corrections for dipol
 direction  3 min pos   269,
 dipolmoment           0.000000      0.000000     -0.293058 electrons x Angstroem
 Tr[quadrupol]      -586.774204

 energy correction for charged system         0.000000 eV
 dipol+quadrupol energy correction           -0.004466 eV
 added-field ion interaction          6.475539 eV  (added to PSCEN)


 Broyden mixing:
  rms(total) = 0.46947E+00    rms(broyden)= 0.46917E+00
  rms(prec ) = 0.47867E+00
  weight for this iteration     100.00

 eigenvalues of (default mixing * dielectric matrix)
  average eigenvalue GAMMA=   0.7931
  2.0775  0.9155  0.9155  0.8070  0.8070  0.5317  0.2017  0.0886

 Free energy of the ion-electron system (eV)
  ---------------------------------------------------
  alpha Z        PSCENC =         8.51186295
  Ewald energy   TEWEN  =      2286.39599691
  -Hartree energ DENC   =     -3628.83371464
  -exchange      EXHF   =         0.00000000
  -V(xc)+E(xc)   XCENC  =       111.84565408
  PAW double counting   =      2327.11713658    -2332.56357137
  entropy T*S    EENTRO =        -0.00000000
  eigenvalues    EBANDS =      -401.78197013
  atomic energy  EATOM  =      1593.71602445
  Solvation  Ecorr_sol  =         0.00000000
  ---------------------------------------------------
  free energy    TOTEN  =       -35.59258116 eV

  energy without entropy =      -35.59258116  energy(sigma->0) =      -35.59258116


--------------------------------------------------------------------------------------------------------




--------------------------------------- Iteration      1(  14)  ---------------------------------------


    POTLOK:  cpu time    0.7394: real time    0.7441
    SETDIJ:  cpu time    0.0110: real time    0.0111
    EDDIAG:  cpu time    0.1628: real time    0.1636
  RMM-DIIS:  cpu time    0.7574: real time    0.7611
    ORTHCH:  cpu time    0.0108: real time    0.0109
       DOS:  cpu time    0.0002: real time    0.0002
    CHARGE:  cpu time    0.0964: real time    0.0969
    MIXING:  cpu time    0.0251: real time    0.0252
    --------------------------------------------
      LOOP:  cpu time    1.8030: real time    1.8131

 eigenvalue-minimisations  :   121
 total energy-change (2. order) : 0.1315375E+00  (-0.7696727E-03)
 number of electron      28.9999994 magnetization       4.4830321
 augmentation part        0.4431706 magnetization       3.6932194

 DIPCOR: dipole corrections for dipol
 direction  3 min pos   269,
 dipolmoment           0.000000      0.000000     -0.296541 electrons x Angstroem
 Tr[quadrupol]      -586.855364

 energy correction for charged system         0.000000 eV
 dipol+quadrupol energy correction           -0.004573 eV
 added-field ion interaction          6.552493 eV  (added to PSCEN)


 Broyden mixing:
  rms(total) = 0.58145E+00    rms(broyden)= 0.58141E+00
  rms(prec ) = 0.59424E+00
  weight for this iteration     100.00

 eigenvalues of (default mixing * dielectric matrix)
  average eigenvalue GAMMA=   0.8556
  2.1584  0.7196  0.7196  0.8170  0.8170  0.8332  0.8332  0.6015  0.2011

 Free energy of the ion-electron system (eV)
  ---------------------------------------------------
  alpha Z        PSCENC =         8.58871062
  Ewald energy   TEWEN  =      2286.39599691
  -Hartree energ DENC   =     -3628.97100714
  -exchange      EXHF   =         0.00000000
  -V(xc)+E(xc)   XCENC  =       111.98397432
  PAW double counting   =      2328.25915155    -2333.70532135
  entropy T*S    EENTRO =        -0.00000000
  eigenvalues    EBANDS =      -401.72857299
  atomic energy  EATOM  =      1593.71602445
  Solvation  Ecorr_sol  =         0.00000000
  ---------------------------------------------------
  free energy    TOTEN  =       -35.46104363 eV

  energy without entropy =      -35.46104363  energy(sigma->0) =      -35.46104363


--------------------------------------------------------------------------------------------------------




--------------------------------------- Iteration      1(  15)  ---------------------------------------


    POTLOK:  cpu time    0.9250: real time    0.9300
    SETDIJ:  cpu time    0.0098: real time    0.0099
    EDDIAG:  cpu time    0.1634: real time    0.1641
  RMM-DIIS:  cpu time    0.7663: real time    0.7704
    ORTHCH:  cpu time    0.0106: real time    0.0107
       DOS:  cpu time    0.0002: real time    0.0002
    CHARGE:  cpu time    0.0974: real time    0.0979
    MIXING:  cpu time    0.0266: real time    0.0268
    --------------------------------------------
      LOOP:  cpu time    1.9993: real time    2.0100

 eigenvalue-minimisations  :   129
 total energy-change (2. order) :-0.2044237E-01  (-0.6621748E-03)
 number of electron      28.9999994 magnetization       4.1370607
 augmentation part        0.4461199 magnetization       3.3473356

 DIPCOR: dipole corrections for dipol
 direction  3 min pos   269,
 dipolmoment           0.000000      0.000000     -0.293301 electrons x Angstroem
 Tr[quadrupol]      -586.764641

 energy correction for charged system         0.000000 eV
 dipol+quadrupol energy correction           -0.004474 eV
 added-field ion interaction          6.480909 eV  (added to PSCEN)


 Broyden mixing:
  rms(total) = 0.58454E+00    rms(broyden)= 0.58454E+00
  rms(prec ) = 0.59775E+00
  weight for this iteration     100.00

 eigenvalues of (default mixing * dielectric matrix)
  average eigenvalue GAMMA=   1.0029
  2.3532  1.3407  1.3407  1.2086  0.6865  0.6865  0.7682  0.7682  0.6751  0.2011

 Free energy of the ion-electron system (eV)
  ---------------------------------------------------
  alpha Z        PSCENC =         8.51722628
  Ewald energy   TEWEN  =      2286.39599691
  -Hartree energ DENC   =     -3628.81929754
  -exchange      EXHF   =         0.00000000
  -V(xc)+E(xc)   XCENC  =       111.95624499
  PAW double counting   =      2329.59429723    -2335.03958299
  entropy T*S    EENTRO =        -0.00000000
  eigenvalues    EBANDS =      -401.80239534
  atomic energy  EATOM  =      1593.71602445
  Solvation  Ecorr_sol  =         0.00000000
  ---------------------------------------------------
  free energy    TOTEN  =       -35.48148600 eV

  energy without entropy =      -35.48148600  energy(sigma->0) =      -35.48148600


--------------------------------------------------------------------------------------------------------




--------------------------------------- Iteration      1(  16)  ---------------------------------------


    POTLOK:  cpu time    0.7406: real time    0.7449
    SETDIJ:  cpu time    0.0119: real time    0.0119
    EDDIAG:  cpu time    0.1623: real time    0.1631
  RMM-DIIS:  cpu time    0.6854: real time    0.6889
    ORTHCH:  cpu time    0.0111: real time    0.0112
       DOS:  cpu time    0.0002: real time    0.0002
    CHARGE:  cpu time    0.0964: real time    0.0969
    MIXING:  cpu time    0.0259: real time    0.0260
    --------------------------------------------
      LOOP:  cpu time    1.7337: real time    1.7430

 eigenvalue-minimisations  :   114
 total energy-change (2. order) :-0.7245228E+00  (-0.4857129E-01)
 number of electron      28.9999993 magnetization       3.9196750
 augmentation part        0.5479296 magnetization       3.0540456

 DIPCOR: dipole corrections for dipol
 direction  3 min pos   269,
 dipolmoment           0.000000      0.000000     -0.279580 electrons x Angstroem
 Tr[quadrupol]      -586.039439

 energy correction for charged system         0.000000 eV
 dipol+quadrupol energy correction           -0.004065 eV
 added-field ion interaction          6.177725 eV  (added to PSCEN)


 Broyden mixing:
  rms(total) = 0.51305E+00    rms(broyden)= 0.51163E+00
  rms(prec ) = 0.52306E+00
  weight for this iteration     100.00

 eigenvalues of (default mixing * dielectric matrix)
  average eigenvalue GAMMA=   0.9555
  2.4129  1.2254  1.2254  1.4071  0.6609  0.6609  0.2011  0.8415  0.7623  0.5567
  0.5567

 Free energy of the ion-electron system (eV)
  ---------------------------------------------------
  alpha Z        PSCENC =         8.21445034
  Ewald energy   TEWEN  =      2286.39599691
  -Hartree energ DENC   =     -3626.21640909
  -exchange      EXHF   =         0.00000000
  -V(xc)+E(xc)   XCENC  =       111.34912747
  PAW double counting   =      2330.57318676    -2335.99048700
  entropy T*S    EENTRO =        -0.00000000
  eigenvalues    EBANDS =      -404.24789865
  atomic energy  EATOM  =      1593.71602445
  Solvation  Ecorr_sol  =         0.00000000
  ---------------------------------------------------
  free energy    TOTEN  =       -36.20600881 eV

  energy without entropy =      -36.20600881  energy(sigma->0) =      -36.20600881


--------------------------------------------------------------------------------------------------------




--------------------------------------- Iteration      1(  17)  ---------------------------------------


    POTLOK:  cpu time    0.7414: real time    0.7457
    SETDIJ:  cpu time    0.0103: real time    0.0103
    EDDIAG:  cpu time    0.1652: real time    0.1660
  RMM-DIIS:  cpu time    0.6375: real time    0.6408
    ORTHCH:  cpu time    0.0107: real time    0.0107
       DOS:  cpu time    0.0003: real time    0.0003
    CHARGE:  cpu time    0.0970: real time    0.0977
    MIXING:  cpu time    0.0275: real time    0.0276
    --------------------------------------------
      LOOP:  cpu time    1.6898: real time    1.6991

 eigenvalue-minimisations  :   107
 total energy-change (2. order) :-0.1699073E+00  (-0.6182865E-02)
 number of electron      28.9999993 magnetization       3.7125704
 augmentation part        0.5220455 magnetization       2.8600738

 DIPCOR: dipole corrections for dipol
 direction  3 min pos   269,
 dipolmoment           0.000000      0.000000     -0.311804 electrons x Angstroem
 Tr[quadrupol]      -586.561036

 energy correction for charged system         0.000000 eV
 dipol+quadrupol energy correction           -0.005056 eV
 added-field ion interaction          6.889764 eV  (added to PSCEN)


 Broyden mixing:
  rms(total) = 0.42390E+00    rms(broyden)= 0.42383E+00
  rms(prec ) = 0.43139E+00
  weight for this iteration     100.00

 eigenvalues of (default mixing * dielectric matrix)
  average eigenvalue GAMMA=   0.9409
  2.3982  1.0795  1.0795  1.3919  0.9324  0.9324  0.7288  0.7288  0.2011  0.7025
  0.5959  0.5198

 Free energy of the ion-electron system (eV)
  ---------------------------------------------------
  alpha Z        PSCENC =         8.92549862
  Ewald energy   TEWEN  =      2286.39599691
  -Hartree energ DENC   =     -3626.80045837
  -exchange      EXHF   =         0.00000000
  -V(xc)+E(xc)   XCENC  =       111.16427819
  PAW double counting   =      2326.47712160    -2331.88542892
  entropy T*S    EENTRO =        -0.00000269
  eigenvalues    EBANDS =      -404.36894589
  atomic energy  EATOM  =      1593.71602445
  Solvation  Ecorr_sol  =         0.00000000
  ---------------------------------------------------
  free energy    TOTEN  =       -36.37591610 eV

  energy without entropy =      -36.37591341  energy(sigma->0) =      -36.37591476


--------------------------------------------------------------------------------------------------------




--------------------------------------- Iteration      1(  18)  ---------------------------------------


    POTLOK:  cpu time    1.1096: real time    1.1199
    SETDIJ:  cpu time    0.0140: real time    0.0145
    EDDIAG:  cpu time    0.1638: real time    0.1646
  RMM-DIIS:  cpu time    0.6621: real time    0.6656
    ORTHCH:  cpu time    0.0105: real time    0.0106
       DOS:  cpu time    0.0002: real time    0.0002
    CHARGE:  cpu time    0.0948: real time    0.0953
    MIXING:  cpu time    0.0282: real time    0.0284
    --------------------------------------------
      LOOP:  cpu time    2.0832: real time    2.0991

 eigenvalue-minimisations  :   112
 total energy-change (2. order) :-0.3829641E+00  (-0.2492583E-01)
 number of electron      28.9999994 magnetization       2.9291990
 augmentation part        0.4390703 magnetization       2.1419299

 DIPCOR: dipole corrections for dipol
 direction  3 min pos   269,
 dipolmoment           0.000000      0.000000     -0.356654 electrons x Angstroem
 Tr[quadrupol]      -587.420486

 energy correction for charged system         0.000000 eV
 dipol+quadrupol energy correction           -0.006615 eV
 added-field ion interaction          7.880774 eV  (added to PSCEN)


 Broyden mixing:
  rms(total) = 0.30992E+00    rms(broyden)= 0.30873E+00
  rms(prec ) = 0.31386E+00
  weight for this iteration     100.00

 eigenvalues of (default mixing * dielectric matrix)
  average eigenvalue GAMMA=   0.9940
  2.3200  2.3200  1.0669  1.0669  0.9959  0.9959  0.7424  0.7424  0.2011  0.6744
  0.6744  0.5610  0.5610

 Free energy of the ion-electron system (eV)
  ---------------------------------------------------
  alpha Z        PSCENC =         9.91495000
  Ewald energy   TEWEN  =      2286.39599691
  -Hartree energ DENC   =     -3627.74404684
  -exchange      EXHF   =         0.00000000
  -V(xc)+E(xc)   XCENC  =       110.85277737
  PAW double counting   =      2321.50350926    -2326.90913294
  entropy T*S    EENTRO =        -0.00000000
  eigenvalues    EBANDS =      -404.48895840
  atomic energy  EATOM  =      1593.71602445
  Solvation  Ecorr_sol  =         0.00000000
  ---------------------------------------------------
  free energy    TOTEN  =       -36.75888019 eV

  energy without entropy =      -36.75888019  energy(sigma->0) =      -36.75888019


--------------------------------------------------------------------------------------------------------




--------------------------------------- Iteration      1(  19)  ---------------------------------------


    POTLOK:  cpu time    0.7376: real time    0.7421
    SETDIJ:  cpu time    0.0124: real time    0.0124
    EDDIAG:  cpu time    0.1653: real time    0.1661
  RMM-DIIS:  cpu time    0.6180: real time    0.6211
    ORTHCH:  cpu time    0.0113: real time    0.0114
       DOS:  cpu time    0.0002: real time    0.0002
    CHARGE:  cpu time    0.0987: real time    0.0992
    MIXING:  cpu time    0.0285: real time    0.0287
    --------------------------------------------
      LOOP:  cpu time    1.6721: real time    1.6813

 eigenvalue-minimisations  :   104
 total energy-change (2. order) :-0.1058873E+01  (-0.3067981E-01)
 number of electron      28.9999994 magnetization       2.1317891
 augmentation part        0.4484692 magnetization       1.3492920

 DIPCOR: dipole corrections for dipol
 direction  3 min pos   269,
 dipolmoment           0.000000      0.000000     -0.395409 electrons x Angstroem
 Tr[quadrupol]      -587.456599

 energy correction for charged system         0.000000 eV
 dipol+quadrupol energy correction           -0.008131 eV
 added-field ion interaction          8.737130 eV  (added to PSCEN)


 Broyden mixing:
  rms(total) = 0.47921E+00    rms(broyden)= 0.47835E+00
  rms(prec ) = 0.49154E+00
  weight for this iteration     100.00

 eigenvalues of (default mixing * dielectric matrix)
  average eigenvalue GAMMA=   1.1403
  4.4695  2.2404  1.0195  1.0195  1.1860  1.1860  0.7243  0.7243  0.7704  0.6931
  0.6931  0.2011  0.6122  0.4252

 Free energy of the ion-electron system (eV)
  ---------------------------------------------------
  alpha Z        PSCENC =        10.76978941
  Ewald energy   TEWEN  =      2286.39599691
  -Hartree energ DENC   =     -3625.16251720
  -exchange      EXHF   =         0.00000000
  -V(xc)+E(xc)   XCENC  =       109.86438726
  PAW double counting   =      2304.66225429    -2310.04234026
  entropy T*S    EENTRO =        -0.00000000
  eigenvalues    EBANDS =      -408.02134846
  atomic energy  EATOM  =      1593.71602445
  Solvation  Ecorr_sol  =         0.00000000
  ---------------------------------------------------
  free energy    TOTEN  =       -37.81775360 eV

  energy without entropy =      -37.81775360  energy(sigma->0) =      -37.81775360


--------------------------------------------------------------------------------------------------------




--------------------------------------- Iteration      1(  20)  ---------------------------------------


    POTLOK:  cpu time    0.7414: real time    0.7461
    SETDIJ:  cpu time    0.0112: real time    0.0113
    EDDIAG:  cpu time    0.1642: real time    0.1652
  RMM-DIIS:  cpu time    0.7162: real time    0.7198
    ORTHCH:  cpu time    0.0105: real time    0.0106
       DOS:  cpu time    0.0002: real time    0.0002
    CHARGE:  cpu time    0.0969: real time    0.0974
    MIXING:  cpu time    0.0291: real time    0.0292
    --------------------------------------------
      LOOP:  cpu time    1.7696: real time    1.7796

 eigenvalue-minimisations  :   108
 total energy-change (2. order) :-0.5079616E+00  (-0.4864753E-01)
 number of electron      28.9999993 magnetization       1.8570217
 augmentation part        0.5187820 magnetization       1.0269626

 DIPCOR: dipole corrections for dipol
 direction  3 min pos   269,
 dipolmoment           0.000000      0.000000     -0.426352 electrons x Angstroem
 Tr[quadrupol]      -587.347560

 energy correction for charged system         0.000000 eV
 dipol+quadrupol energy correction           -0.009453 eV
 added-field ion interaction          9.420859 eV  (added to PSCEN)


 Broyden mixing:
  rms(total) = 0.60192E+00    rms(broyden)= 0.60010E+00
  rms(prec ) = 0.61341E+00
  weight for this iteration     100.00

 eigenvalues of (default mixing * dielectric matrix)
  average eigenvalue GAMMA=   1.2655
  6.8009  2.2834  1.0398  1.0398  1.2998  0.7411  0.7411  0.9386  0.9386  0.2011
  0.6307  0.6307  0.6896  0.5723  0.4346

 Free energy of the ion-electron system (eV)
  ---------------------------------------------------
  alpha Z        PSCENC =        11.45219683
  Ewald energy   TEWEN  =      2286.39599691
  -Hartree energ DENC   =     -3622.85469082
  -exchange      EXHF   =         0.00000000
  -V(xc)+E(xc)   XCENC  =       109.43575638
  PAW double counting   =      2297.26368778    -2302.63177946
  entropy T*S    EENTRO =        -0.00000000
  eigenvalues    EBANDS =      -411.10290728
  atomic energy  EATOM  =      1593.71602445
  Solvation  Ecorr_sol  =         0.00000000
  ---------------------------------------------------
  free energy    TOTEN  =       -38.32571521 eV

  energy without entropy =      -38.32571521  energy(sigma->0) =      -38.32571521


--------------------------------------------------------------------------------------------------------




--------------------------------------- Iteration      1(  21)  ---------------------------------------


    POTLOK:  cpu time    0.7492: real time    0.7539
    SETDIJ:  cpu time    0.0124: real time    0.0124
    EDDIAG:  cpu time    0.1643: real time    0.1651
  RMM-DIIS:  cpu time    0.6989: real time    0.7026
    ORTHCH:  cpu time    0.0110: real time    0.0110
       DOS:  cpu time    0.0002: real time    0.0002
    CHARGE:  cpu time    0.0975: real time    0.0980
    MIXING:  cpu time    0.0303: real time    0.0304
    --------------------------------------------
      LOOP:  cpu time    1.7637: real time    1.7736

 eigenvalue-minimisations  :   110
 total energy-change (2. order) :-0.2360320E+00  (-0.1008082E-01)
 number of electron      28.9999993 magnetization       1.7216512
 augmentation part        0.4806146 magnetization       0.9224352

 DIPCOR: dipole corrections for dipol
 direction  3 min pos   269,
 dipolmoment           0.000000      0.000000     -0.457596 electrons x Angstroem
 Tr[quadrupol]      -587.856290

 energy correction for charged system         0.000000 eV
 dipol+quadrupol energy correction           -0.010889 eV
 added-field ion interaction         10.111226 eV  (added to PSCEN)


 Broyden mixing:
  rms(total) = 0.40839E+00    rms(broyden)= 0.40829E+00
  rms(prec ) = 0.41867E+00
  weight for this iteration     100.00

 eigenvalues of (default mixing * dielectric matrix)
  average eigenvalue GAMMA=   1.2960
  7.6369  2.2768  1.0434  1.0434  1.1873  1.1873  0.7301  0.7301  0.2011  0.8358
  0.8358  0.6617  0.6617  0.6351  0.6351  0.4338

 Free energy of the ion-electron system (eV)
  ---------------------------------------------------
  alpha Z        PSCENC =        12.14112737
  Ewald energy   TEWEN  =      2286.39599691
  -Hartree energ DENC   =     -3623.12838760
[...]
  0.6272  0.6272  0.5870  0.4394  0.4555  0.2855

 Free energy of the ion-electron system (eV)
  ---------------------------------------------------
  alpha Z        PSCENC =        10.28027262
  Ewald energy   TEWEN  =      2286.39599691
  -Hartree energ DENC   =     -3619.49002763
  -exchange      EXHF   =         0.00000000
  -V(xc)+E(xc)   XCENC  =       108.72063693
  PAW double counting   =      2298.21935822    -2303.59577139
  entropy T*S    EENTRO =        -0.00037744
  eigenvalues    EBANDS =      -413.20278374
  atomic energy  EATOM  =      1593.71602445
  Solvation  Ecorr_sol  =         0.00000000
  ---------------------------------------------------
  free energy    TOTEN  =       -38.95667107 eV

  energy without entropy =      -38.95629363  energy(sigma->0) =      -38.95648235


--------------------------------------------------------------------------------------------------------




--------------------------------------- Iteration      1(  42)  ---------------------------------------


    POTLOK:  cpu time    0.7433: real time    0.7480
    SETDIJ:  cpu time    0.0106: real time    0.0107
    EDDIAG:  cpu time    0.1621: real time    0.1631
  RMM-DIIS:  cpu time    0.5199: real time    0.5226
    ORTHCH:  cpu time    0.0101: real time    0.0101
       DOS:  cpu time    0.0003: real time    0.0003
    CHARGE:  cpu time    0.0974: real time    0.0979
    MIXING:  cpu time    0.0522: real time    0.0525
    --------------------------------------------
      LOOP:  cpu time    1.5959: real time    1.6052

 eigenvalue-minimisations  :    82
 total energy-change (2. order) : 0.1340734E-04  (-0.2311818E-06)
 number of electron      28.9999993 magnetization       1.0000972
 augmentation part        0.4668238 magnetization       0.2175961

 DIPCOR: dipole corrections for dipol
 direction  3 min pos   269,
 dipolmoment           0.000000      0.000000     -0.373955 electrons x Angstroem
 Tr[quadrupol]      -586.699082

 energy correction for charged system         0.000000 eV
 dipol+quadrupol energy correction           -0.007272 eV
 added-field ion interaction          8.263070 eV  (added to PSCEN)


 Broyden mixing:
  rms(total) = 0.62255E-02    rms(broyden)= 0.61867E-02
  rms(prec ) = 0.63529E-02
  weight for this iteration     100.00

 eigenvalues of (default mixing * dielectric matrix)
  average eigenvalue GAMMA=   1.6684
 13.9596  9.9541  4.6892  3.3559  2.1554  2.1554  1.0430  1.0430  1.4763  1.4763
  1.5061  1.5061  1.2789  1.2789  0.9641  0.9641  0.7297  0.7297  0.2011  0.8628
  0.8628  0.6631  0.6631  0.6012  0.6012  0.6272  0.6272  0.6862  0.6862  0.6949
  0.6949  0.6273  0.6273  0.5595  0.4393  0.4559  0.2855

 Free energy of the ion-electron system (eV)
  ---------------------------------------------------
  alpha Z        PSCENC =        10.29658849
  Ewald energy   TEWEN  =      2286.39599691
  -Hartree energ DENC   =     -3619.49312874
  -exchange      EXHF   =         0.00000000
  -V(xc)+E(xc)   XCENC  =       108.72069699
  PAW double counting   =      2298.21687850    -2303.59328523
  entropy T*S    EENTRO =        -0.00038555
  eigenvalues    EBANDS =      -413.21604348
  atomic energy  EATOM  =      1593.71602445
  Solvation  Ecorr_sol  =         0.00000000
  ---------------------------------------------------
  free energy    TOTEN  =       -38.95665766 eV

  energy without entropy =      -38.95627211  energy(sigma->0) =      -38.95646488


--------------------------------------------------------------------------------------------------------




--------------------------------------- Iteration      1(  43)  ---------------------------------------


    POTLOK:  cpu time    0.7331: real time    0.7370
    SETDIJ:  cpu time    0.0107: real time    0.0107
    EDDIAG:  cpu time    0.3607: real time    0.3623
  RMM-DIIS:  cpu time    0.5211: real time    0.5236
    ORTHCH:  cpu time    0.0108: real time    0.0109
       DOS:  cpu time    0.0003: real time    0.0003
    CHARGE:  cpu time    0.0987: real time    0.0993
    MIXING:  cpu time    0.0528: real time    0.0531
    --------------------------------------------
      LOOP:  cpu time    1.7883: real time    1.7972

 eigenvalue-minimisations  :    84
 total energy-change (2. order) :-0.4636965E-04  (-0.2361148E-06)
 number of electron      28.9999993 magnetization       1.0000719
 augmentation part        0.4667710 magnetization       0.2176219

 DIPCOR: dipole corrections for dipol
 direction  3 min pos   269,
 dipolmoment           0.000000      0.000000     -0.374473 electrons x Angstroem
 Tr[quadrupol]      -586.701908

 energy correction for charged system         0.000000 eV
 dipol+quadrupol energy correction           -0.007292 eV
 added-field ion interaction          8.274508 eV  (added to PSCEN)


 Broyden mixing:
  rms(total) = 0.71399E-02    rms(broyden)= 0.71369E-02
  rms(prec ) = 0.73292E-02
  weight for this iteration     100.00

 eigenvalues of (default mixing * dielectric matrix)
  average eigenvalue GAMMA=   1.6753
 13.9634  9.9567  5.0182  3.5569  2.3031  2.3031  1.0430  1.0430  1.6959  1.6959
  1.5391  1.5391  1.1839  1.1839  0.9772  0.9772  0.7297  0.7297  0.2011  0.8572
  0.8572  0.6618  0.6618  0.6008  0.6008  0.7791  0.7791  0.6311  0.6311  0.7019
  0.6374  0.6374  0.6077  0.6077  0.5887  0.4394  0.4556  0.2855

 Free energy of the ion-electron system (eV)
  ---------------------------------------------------
  alpha Z        PSCENC =        10.30800607
  Ewald energy   TEWEN  =      2286.39599691
  -Hartree energ DENC   =     -3619.49466484
  -exchange      EXHF   =         0.00000000
  -V(xc)+E(xc)   XCENC  =       108.72065040
  PAW double counting   =      2298.21086554    -2303.58725101
  entropy T*S    EENTRO =        -0.00037588
  eigenvalues    EBANDS =      -413.22595566
  atomic energy  EATOM  =      1593.71602445
  Solvation  Ecorr_sol  =         0.00000000
  ---------------------------------------------------
  free energy    TOTEN  =       -38.95670403 eV

  energy without entropy =      -38.95632815  energy(sigma->0) =      -38.95651609


--------------------------------------------------------------------------------------------------------




--------------------------------------- Iteration      1(  44)  ---------------------------------------


    POTLOK:  cpu time    0.7395: real time    0.7455
    SETDIJ:  cpu time    0.0126: real time    0.0126
    EDDIAG:  cpu time    0.1635: real time    0.1643
  RMM-DIIS:  cpu time    0.4683: real time    0.4708
    ORTHCH:  cpu time    0.0111: real time    0.0112
       DOS:  cpu time    0.0003: real time    0.0003
    --------------------------------------------
      LOOP:  cpu time    1.3953: real time    1.4046

 eigenvalue-minimisations  :    71
 total energy-change (2. order) : 0.1927414E-05  (-0.9804441E-07)
 number of electron      28.9999993 magnetization       1.0000719
 augmentation part        0.4667710 magnetization       0.2176219

 DIPCOR: dipole corrections for dipol
 direction  3 min pos   269,
 dipolmoment           0.000000      0.000000     -0.375099 electrons x Angstroem
 Tr[quadrupol]      -586.705211

 energy correction for charged system         0.000000 eV
 dipol+quadrupol energy correction           -0.007317 eV
 added-field ion interaction          8.288352 eV  (added to PSCEN)


 Free energy of the ion-electron system (eV)
  ---------------------------------------------------
  alpha Z        PSCENC =        10.32182570
  Ewald energy   TEWEN  =      2286.39599691
  -Hartree energ DENC   =     -3619.49530584
  -exchange      EXHF   =         0.00000000
  -V(xc)+E(xc)   XCENC  =       108.72060359
  PAW double counting   =      2298.21008384    -2303.58643424
  entropy T*S    EENTRO =        -0.00037390
  eigenvalues    EBANDS =      -413.23912262
  atomic energy  EATOM  =      1593.71602445
  Solvation  Ecorr_sol  =         0.00000000
  ---------------------------------------------------
  free energy    TOTEN  =       -38.95670210 eV

  energy without entropy =      -38.95632820  energy(sigma->0) =      -38.95651515


--------------------------------------------------------------------------------------------------------




 average (electrostatic) potential at core
  the test charge radii are     0.6991  0.7215  0.5201  0.9406
  (the norm of the test charge is              1.0000)
       1 -62.9610       2 -61.1599       3 -82.4208       4 -81.9454       5 -43.6915
       6 -43.7970       7-101.6918
 
 
 
 E-fermi :  -7.2600     XC(G=0):  -0.7790     alpha+bet : -0.0557


 spin component 1

 k-point     1 :       0.0000    0.0000    0.0000
  band No.  band energies     occupation 
      1     -28.5106      1.00000
      2     -26.4128      1.00000
      3     -22.4389      1.00000
      4     -18.5057      1.00000
      5     -14.3593      1.00000
      6     -13.0504      1.00000
      7     -12.8122      1.00000
      8     -12.4034      1.00000
      9     -11.5028      1.00000
     10     -10.8362      1.00000
     11      -9.1320      1.00000
     12      -8.6637      1.00000
     13      -8.5478      1.00000
     14      -8.0460      1.00000
     15      -7.8017      1.00000
     16      -2.6268      0.00000
     17      -1.3833      0.00000
     18      -0.7311      0.00000
     19      -0.1788      0.00000
     20       0.3845      0.00000
     21       0.6989      0.00000
     22       0.7479      0.00000
     23       0.8340      0.00000
     24       0.9735      0.00000

 spin component 2

 k-point     1 :       0.0000    0.0000    0.0000
  band No.  band energies     occupation 
      1     -27.9896      1.00000
      2     -25.7724      1.00000
      3     -22.3902      1.00000
      4     -18.4122      1.00000
      5     -14.1384      1.00000
      6     -12.6675      1.00000
      7     -12.5440      1.00000
      8     -12.2055      1.00000
      9     -11.2860      1.00000
     10     -10.7149      1.00000
     11      -8.5517      1.00000
     12      -8.2905      1.00000
     13      -7.9894      1.00000
     14      -7.2637      0.95888
     15      -7.2563      0.04112
     16      -2.5453      0.00000
     17      -1.3640      0.00000
     18      -0.7006      0.00000
     19      -0.1557      0.00000
     20       0.4198      0.00000
     21       0.7104      0.00000
     22       0.7574      0.00000
     23       0.8981      0.00000
     24       0.9864      0.00000


--------------------------------------------------------------------------------------------------------


 soft charge-density along one line, spin component           1
         0         1         2         3         4         5         6         7         8         9
 total charge-density along one line
 
 soft charge-density along one line, spin component           2
         0         1         2         3         4         5         6         7         8         9
 total charge-density along one line
 
 pseudopotential strength for first ion, spin component:           1
 10.493  13.961   0.000  -0.005   0.000  -0.001   0.016  -0.001
 13.961  18.573   0.001  -0.006   0.001  -0.002   0.022  -0.002
  0.000   0.001  -4.612   0.000  -0.008   9.026  -0.000   0.012
 -0.005  -0.006   0.000  -4.600   0.000  -0.000   9.004  -0.000
  0.000   0.001  -0.008   0.000  -4.603   0.012  -0.000   9.012
 -0.001  -0.002   9.026  -0.000   0.012 -19.819   0.001  -0.017
  0.016   0.022  -0.000   9.004  -0.000   0.001 -19.777   0.000
 -0.001  -0.002   0.012  -0.000   9.012  -0.017   0.000 -19.799
 pseudopotential strength for first ion, spin component:           2
 10.503  13.974   0.001  -0.006   0.000  -0.002   0.020  -0.002
 13.974  18.591   0.001  -0.008   0.001  -0.002   0.027  -0.002
  0.001   0.001  -4.615   0.000  -0.007   9.030  -0.000   0.010
 -0.006  -0.008   0.000  -4.601   0.000  -0.000   9.005  -0.000
  0.000   0.001  -0.007   0.000  -4.608   0.010  -0.000   9.018
 -0.002  -0.002   9.030  -0.000   0.010 -19.820   0.001  -0.013
  0.020   0.027  -0.000   9.005  -0.000   0.001 -19.773  -0.000
 -0.002  -0.002   0.010  -0.000   9.018  -0.013  -0.000 -19.805
 total augmentation occupancy for first ion, spin component:           1
  8.838  -4.253  -0.001  -0.485   0.007  -0.000  -0.109   0.002
 -4.253   2.238  -0.003   0.356  -0.009   0.000   0.070  -0.002
 -0.001  -0.003   1.728   0.017   0.379   0.184   0.002   0.067
 -0.485   0.356   0.017   1.692  -0.017   0.002   0.149  -0.003
  0.007  -0.009   0.379  -0.017   1.291   0.067  -0.003   0.107
 -0.000   0.000   0.184   0.002   0.067   0.024   0.000   0.012
 -0.109   0.070   0.002   0.149  -0.003   0.000   0.016  -0.000
  0.002  -0.002   0.067  -0.003   0.107   0.012  -0.000   0.011
 total augmentation occupancy for first ion, spin component:           2
  0.023  -0.021  -0.003  -0.007  -0.002  -0.000  -0.003  -0.000
 -0.021   0.013   0.002   0.014   0.001   0.000   0.002   0.000
 -0.003   0.002  -0.017   0.002   0.006   0.001   0.000   0.000
 -0.007   0.014   0.002  -0.006   0.000  -0.000   0.001  -0.000
 -0.002   0.001   0.006   0.000  -0.024   0.000   0.000   0.000
 -0.000   0.000   0.001  -0.000   0.000   0.000   0.000   0.000
 -0.003   0.002   0.000   0.001   0.000   0.000   0.000  -0.000
 -0.000   0.000   0.000  -0.000   0.000   0.000  -0.000   0.000


------------------------ aborting loop because EDIFF is reached ----------------------------------------


    CHARGE:  cpu time    0.0976: real time    0.0981
    FORLOC:  cpu time    0.0373: real time    0.0375
    FORNL :  cpu time    0.2601: real time    0.2614
    STRESS:  cpu time    0.7703: real time    0.7745
    FORCOR:  cpu time    0.7100: real time    0.7137
    FORHAR:  cpu time    0.0986: real time    0.0991
    MIXING:  cpu time    0.0574: real time    0.0578
    OFIELD:  cpu time    0.0002: real time    0.0002

  FORCE on cell =-STRESS in cart. coord.  units (eV):
  Direction    XX          YY          ZZ          XY          YZ          ZX
  --------------------------------------------------------------------------------------
  Alpha Z     2.04079     2.04079     2.04079
  Ewald    1791.37857  2299.59418 -1804.57705   208.71222  -148.92146    94.72374
  Hartree  2330.09200  2631.50161 -1342.15074   108.51189  -105.81091    70.00790
  E(xc)    -121.40722  -120.44844  -121.05598     0.51321    -0.15627     0.06568
  Local   -4548.54403 -5326.92685  2718.88081  -304.42868   248.48871  -161.09573
  n-local    24.80500    23.43000    24.48071    -1.44397     0.09859     0.35016
  augment    -7.41570    -7.86910    -7.40356    -1.56714    -0.61130     0.16796
  Kinetic   528.14756   496.48298   531.05020   -11.23823     7.27551    -4.19497
  Fock        0.00000     0.00000     0.00000     0.00000     0.00000     0.00000
  -------------------------------------------------------------------------------------
  Total      -0.90303    -2.19483     1.26518    -0.94070     0.36286     0.02474
  in kB      -0.83159    -2.02119     1.16509    -0.86628     0.33415     0.02279
  external pressure =       -0.56 kB  Pullay stress =        0.00 kB


 VOLUME and BASIS-vectors are now :
 -----------------------------------------------------------------------------
  energy-cutoff  :      544.00
  volume of cell :     1739.83
      direct lattice vectors                 reciprocal lattice vectors
     8.315596000  0.000000000  0.000000000     0.120255962 -0.069429620  0.000000000
     4.157788000  7.201520000  0.000000000     0.000000000  0.138859574  0.000000000
     0.000000000  0.000000000 29.052834000     0.000000000  0.000000000  0.034420050

  length of vectors
     8.315596000  8.315593266 29.052834000     0.138859528  0.138859574  0.034420050


 FORCES acting on ions
    electron-ion (+dipol)            ewald-force                    non-local-force                 convergence-correction
 -----------------------------------------------------------------------------------------------
   0.100E+02 -.190E+02 -.237E+01   -.104E+02 0.185E+02 0.847E+01   0.322E+00 0.311E+00 -.433E+01   -.455E-01 -.750E-01 -.210E-01
   0.359E+02 -.577E+02 -.145E+03   -.380E+02 0.621E+02 0.144E+03   0.223E+01 -.457E+01 0.166E+01   -.122E-01 -.106E-01 -.663E-02
   -.136E+03 -.241E+03 0.217E+03   0.159E+03 0.279E+03 -.238E+03   -.238E+02 -.393E+02 0.209E+02   -.180E-01 -.289E-01 -.793E-02
   0.147E+03 0.226E+03 0.230E+03   -.169E+03 -.265E+03 -.253E+03   0.227E+02 0.409E+02 0.213E+02   -.146E-01 -.220E-01 -.786E-02
   -.239E+02 -.596E+02 -.486E+02   0.266E+02 0.645E+02 0.506E+02   -.266E+01 -.478E+01 -.196E+01   -.749E-03 0.294E-03 0.215E-02
   0.671E+02 -.804E+01 -.438E+02   -.725E+02 0.794E+01 0.456E+02   0.546E+01 0.135E+00 -.172E+01   -.201E-02 -.192E-02 -.288E-02
   -.101E+03 0.161E+03 -.239E+03   0.104E+03 -.167E+03 0.242E+03   -.344E+01 0.635E+01 -.307E+01   -.975E-02 -.476E-02 -.157E-01
 -----------------------------------------------------------------------------------------------
   -.735E+00 0.109E+01 -.327E+02   -.284E-13 -.853E-13 0.568E-13   0.834E+00 -.947E+00 0.327E+02   -.103E+00 -.143E+00 -.599E-01
 
 
 POSITION                                       TOTAL-FORCE (eV/Angst)
 -----------------------------------------------------------------------------------
      4.79151      3.63835      9.53337        -0.148400     -0.235870      1.742521
      4.73834      3.68957     11.05269         0.185281     -0.138394      0.148653
      5.38258      4.62001      8.97883        -0.537073     -0.909468     -0.890245
      4.23158      2.63985      8.98327         0.600192      0.994533     -1.049299
      5.24053      4.59170     11.42129        -0.007787      0.063714      0.071839
      3.68867      3.66390     11.38040         0.026739      0.039071      0.018678
      5.56184      2.25936     11.75468        -0.118952      0.186413     -0.042146
 -----------------------------------------------------------------------------------
    total drift:                               -0.004004     -0.003363     -0.002632


--------------------------------------------------------------------------------------------------------



  FREE ENERGIE OF THE ION-ELECTRON SYSTEM (eV)
  ---------------------------------------------------
  free  energy   TOTEN  =       -38.95670210 eV

  energy  without entropy=      -38.95632820  energy(sigma->0) =      -38.95651515
 


--------------------------------------------------------------------------------------------------------


    POTLOK:  cpu time    0.7502: real time    0.7540


--------------------------------------------------------------------------------------------------------


 stress matrix after NEB project (eV)
     -0.90303     -0.94070      0.02474
     -0.94070     -2.19483      0.36286
      0.02474      0.36286      1.26518
  FORCES: max atom, RMS     1.764663    1.042705
  FORCE total and by dimension    2.758738    1.742521
  Stress total and by dimension    3.044318    2.194835
     LOOP+:  cpu time   77.0616: real time   77.8720
    4ORBIT:  cpu time    0.0000: real time    0.0000

 total amount of memory used by VASP MPI-rank0   118138. kBytes
=======================================================================

   base      :      30000. kBytes
   nonlr-proj:        913. kBytes
   fftplans  :      22218. kBytes
   grid      :      62586. kBytes
   one-center:         12. kBytes
   wavefun   :       2409. kBytes
 
  
  
 General timing and accounting informations for this job:
 ========================================================
  
                  Total CPU time used (sec):       79.303
                            User time (sec):       77.600
                          System time (sec):        1.703
                         Elapsed time (sec):       80.877
  
                   Maximum memory used (kb):      264800.
                   Average memory used (kb):           0.
  
                          Minor page faults:       408555
                          Major page faults:           11
                 Voluntary context switches:         1527
