 vasp.5.4.4.18Apr17-6-g9f103f2a35 (build Sep 01 2024 22:12:51) complex          
  
 executed on             LinuxIFC date 2024.09.23  16:36:14
 running on   16 total cores
 distrk:  each k-point on   16 cores,    1 groups
 distr:  one band on NCORES_PER_BAND=   4 cores,    4 groups


--------------------------------------------------------------------------------------------------------


 INCAR:
 POTCAR:    PAW_PBE C 08Apr2002                   
 POTCAR:    PAW_PBE O 08Apr2002                   
 POTCAR:    PAW_PBE H 15Jun2001                   
 POTCAR:    PAW_PBE F 08Apr2002                   
 POTCAR:    PAW_PBE C 08Apr2002                   
   SHA256 =  253f7b50bb8d59471dbedb8285d89021f4a42ed1a2c5d38a03a736e69125dd95 C/
   COPYR  = (c) Copyright 08Apr2002 Georg Kresse                                
   COPYR  = This file is part of the software VASP. Any use, copying, and all ot
   COPYR  = If you do not have a valid VASP license, you may not use, copy or di
   VRHFIN =C: s2p2                                                              
   LEXCH  = PE                                                                  
   EATOM  =   147.1560 eV,   10.8157 Ry                                         
                                                                                
   TITEL  = PAW_PBE C 08Apr2002                                                 
   LULTRA =        F    use ultrasoft PP ?                                      
   IUNSCR =        1    unscreen: 0-lin 1-nonlin 2-no                           
   RPACOR =    1.200    partial core radius                                     
   POMASS =   12.011; ZVAL   =    4.000    mass and valenz                      
   RCORE  =    1.500    outmost cutoff radius                                   
   RWIGS  =    1.630; RWIGS  =    0.863    wigner-seitz radius (au A)           
   ENMAX  =  400.000; ENMIN  =  300.000 eV                                      
   ICORE  =        2    local potential                                         
   LCOR   =        T    correct aug charges                                     
   LPAW   =        T    paw PP                                                  
   EAUG   =  644.873                                                            
   DEXC   =    0.000                                                            
   RMAX   =    1.529    core radius for proj-oper                               
   RAUG   =    1.300    factor for augmentation sphere                          
   RDEP   =    1.501    radius for radial grids                                 
   RDEPT  =    1.300    core radius for aug-charge                              
                                                                                
   Atomic configuration                                                         
    4 entries                                                                   
     n  l   j            E        occ.                                          
     1  0  0.50      -273.3789   2.0000                                         
     2  0  0.50       -13.7508   2.0000                                         
     2  1  0.50        -5.2854   2.0000                                         
     3  2  1.50        -5.4423   0.0000                                         
   Description                                                                  
     l       E           TYP  RCUT    TYP  RCUT                                 
     0    -13.7508458     23  1.200                                             
     0     -8.2022199     23  1.200                                             
     1     -5.2854383     23  1.500                                             
     1     34.0145650     23  1.500                                             
     2     -5.4423304      7  1.500                                             
  local pseudopotential read in
  partial core-charges read in
  partial kinetic energy density read in
  atomic valenz-charges read in
  non local Contribution for L=           0  read in
    real space projection operators read in
  non local Contribution for L=           0  read in
    real space projection operators read in
  non local Contribution for L=           1  read in
    real space projection operators read in
  non local Contribution for L=           1  read in
    real space projection operators read in
    PAW grid and wavefunctions read in
 
   number of l-projection  operators is LMAX  =           4
   number of lm-projection operators is LMMAX =           8
 
 POTCAR:    PAW_PBE O 08Apr2002                   
   SHA256 =  818f92134a0a090dccd8ba1447fa70422a3b330e708bb4f08108d8ae51209ddf O/
   COPYR  = (c) Copyright 08Apr2002 Georg Kresse                                
   COPYR  = This file is part of the software VASP. Any use, copying, and all ot
   COPYR  = If you do not have a valid VASP license, you may not use, copy or di
   VRHFIN =O: s2p4                                                              
   LEXCH  = PE                                                                  
   EATOM  =   432.3788 eV,   31.7789 Ry                                         
                                                                                
   TITEL  = PAW_PBE O 08Apr2002                                                 
   LULTRA =        F    use ultrasoft PP ?                                      
   IUNSCR =        1    unscreen: 0-lin 1-nonlin 2-no                           
   RPACOR =    1.200    partial core radius                                     
   POMASS =   16.000; ZVAL   =    6.000    mass and valenz                      
   RCORE  =    1.520    outmost cutoff radius                                   
   RWIGS  =    1.550; RWIGS  =    0.820    wigner-seitz radius (au A)           
   ENMAX  =  400.000; ENMIN  =  300.000 eV                                      
   ICORE  =        2    local potential                                         
   LCOR   =        T    correct aug charges                                     
   LPAW   =        T    paw PP                                                  
   EAUG   =  605.392                                                            
   DEXC   =    0.000                                                            
   RMAX   =    1.553    core radius for proj-oper                               
   RAUG   =    1.300    factor for augmentation sphere                          
   RDEP   =    1.550    radius for radial grids                                 
   RDEPT  =    1.329    core radius for aug-charge                              
                                                                                
   Atomic configuration                                                         
    4 entries                                                                   
     n  l   j            E        occ.                                          
     1  0  0.50      -514.6923   2.0000                                         
     2  0  0.50       -23.9615   2.0000                                         
     2  1  0.50        -9.0305   4.0000                                         
     3  2  1.50        -9.5241   0.0000                                         
   Description                                                                  
     l       E           TYP  RCUT    TYP  RCUT                                 
     0    -23.9615318     23  1.200                                             
     0     -9.5240782     23  1.200                                             
     1     -9.0304911     23  1.520                                             
     1      8.1634956     23  1.520                                             
     2     -9.5240782      7  1.500                                             
  local pseudopotential read in
  partial core-charges read in
  partial kinetic energy density read in
  kinetic energy density of atom read in
  atomic valenz-charges read in
  non local Contribution for L=           0  read in
    real space projection operators read in
  non local Contribution for L=           0  read in
    real space projection operators read in
  non local Contribution for L=           1  read in
    real space projection operators read in
  non local Contribution for L=           1  read in
    real space projection operators read in
    PAW grid and wavefunctions read in
 
   number of l-projection  operators is LMAX  =           4
   number of lm-projection operators is LMMAX =           8
 
 POTCAR:    PAW_PBE H 15Jun2001                   
   SHA256 =  030f79b5d3ab3cf0e668861823c8fb652ff669f3e15e46930bd03bfd63a607b6 H/
   COPYR  = (c) Copyright 15Jun2001 Georg Kresse                                
   COPYR  = This file is part of the software VASP. Any use, copying, and all ot
   COPYR  = If you do not have a valid VASP license, you may not use, copy or di
   VRHFIN =H: ultrasoft test                                                    
   LEXCH  = PE                                                                  
   EATOM  =    12.4884 eV,    0.9179 Ry                                         
                                                                                
   TITEL  = PAW_PBE H 15Jun2001                                                 
   LULTRA =        F    use ultrasoft PP ?                                      
   IUNSCR =        0    unscreen: 0-lin 1-nonlin 2-no                           
   RPACOR =    0.000    partial core radius                                     
   POMASS =    1.000; ZVAL   =    1.000    mass and valenz                      
   RCORE  =    1.100    outmost cutoff radius                                   
   RWIGS  =    0.700; RWIGS  =    0.370    wigner-seitz radius (au A)           
   ENMAX  =  250.000; ENMIN  =  200.000 eV                                      
   RCLOC  =    0.701    cutoff for local pot                                    
   LCOR   =        T    correct aug charges                                     
   LPAW   =        T    paw PP                                                  
   EAUG   =  400.000                                                            
   RMAX   =    1.123    core radius for proj-oper                               
   RAUG   =    1.200    factor for augmentation sphere                          
   RDEP   =    1.112    radius for radial grids                                 
   RDEPT  =    0.926    core radius for aug-charge                              
                                                                                
   Atomic configuration                                                         
    2 entries                                                                   
     n  l   j            E        occ.                                          
     1  0  0.50        -6.4927   1.0000                                         
     2  1  0.50        -3.4015   0.0000                                         
   Description                                                                  
     l       E           TYP  RCUT    TYP  RCUT                                 
     0     -6.4927494     23  1.100                                             
     0      6.8029130     23  1.100                                             
     1     -4.0817478     23  1.100                                             
  local pseudopotential read in
  atomic valenz-charges read in
  non local Contribution for L=           0  read in
    real space projection operators read in
  non local Contribution for L=           0  read in
    real space projection operators read in
  non local Contribution for L=           1  read in
    real space projection operators read in
    PAW grid and wavefunctions read in
 
   number of l-projection  operators is LMAX  =           3
   number of lm-projection operators is LMMAX =           5
 
 POTCAR:    PAW_PBE F 08Apr2002                   
   SHA256 =  53c630871ac675939349fc2b976745ee17808dedc90b5bdde026bc81f0faf456 F/
   COPYR  = (c) Copyright 08Apr2002 Georg Kresse                                
   COPYR  = This file is part of the software VASP. Any use, copying, and all ot
   COPYR  = If you do not have a valid VASP license, you may not use, copy or di
   VRHFIN =F: s2p5                                                              
   LEXCH  = PE                                                                  
   EATOM  =   659.6475 eV,   48.4827 Ry                                         
                                                                                
   TITEL  = PAW_PBE F 08Apr2002                                                 
   LULTRA =        F    use ultrasoft PP ?                                      
   IUNSCR =        1    unscreen: 0-lin 1-nonlin 2-no                           
   RPACOR =    1.200    partial core radius                                     
   POMASS =   18.998; ZVAL   =    7.000    mass and valenz                      
   RCORE  =    1.520    outmost cutoff radius                                   
   RWIGS  =    1.500; RWIGS  =    0.794    wigner-seitz radius (au A)           
   ENMAX  =  400.000; ENMIN  =  300.000 eV                                      
   ICORE  =        2    local potential                                         
   LCOR   =        T    correct aug charges                                     
   LPAW   =        T    paw PP                                                  
   EAUG   =  613.614                                                            
   RMAX   =    1.555    core radius for proj-oper                               
   RAUG   =    1.300    factor for augmentation sphere                          
   RDEP   =    1.539    radius for radial grids                                 
   RDEPT  =    1.299    core radius for aug-charge                              
                                                                                
   Atomic configuration                                                         
    4 entries                                                                   
     n  l   j            E        occ.                                          
     1  0  0.50      -663.3661   2.0000                                         
     2  0  0.50       -29.8995   2.0000                                         
     2  1  0.50       -11.1114   5.0000                                         
     3  2  1.50       -10.8847   0.0000                                         
   Description                                                                  
     l       E           TYP  RCUT    TYP  RCUT                                 
     0    -29.8995018     23  1.200                                             
     0     -9.5240782     23  1.200                                             
     1    -11.1113914     23  1.520                                             
     1      1.3605826     23  1.520                                             
     2    -10.8846608      7  1.500                                             
  local pseudopotential read in
  partial core-charges read in
  partial kinetic energy density read in
  atomic valenz-charges read in
  non local Contribution for L=           0  read in
    real space projection operators read in
  non local Contribution for L=           0  read in
    real space projection operators read in
  non local Contribution for L=           1  read in
    real space projection operators read in
  non local Contribution for L=           1  read in
    real space projection operators read in
    PAW grid and wavefunctions read in
 
   number of l-projection  operators is LMAX  =           4
   number of lm-projection operators is LMMAX =           8
 

 ----------------------------------------------------------------------------- 
|                                                                             |
|  ADVICE TO THIS USER RUNNING 'VASP/VAMP'   (HEAR YOUR MASTER'S VOICE ...):  |
|                                                                             |
|      You have a (more or less) 'small supercell' and for smaller cells      |
|      it is recommended  to use the reciprocal-space projection scheme!      |
|      The real space optimization is not  efficient for small cells and it   |
|      is also less accurate ...                                              |
|      Therefore set LREAL=.FALSE. in the  INCAR file                         |
|                                                                             |
 ----------------------------------------------------------------------------- 

 Optimization of the real space projectors (new method)

 maximal supplied QI-value         = 25.13
 optimisation between [QCUT,QGAM] = [ 11.81, 23.88] = [ 39.08,159.64] Ry 
 Optimized for a Real-space Cutoff    1.18 Angstroem

   l    n(q)    QCUT    max X(q) W(low)/X(q) W(high)/X(q)  e(spline) 
   0      8    11.813   115.676    0.10E-03    0.13E-03    0.36E-06
   0      8    11.813    87.132    0.10E-03    0.13E-03    0.36E-06
   1      8    11.813     4.429    0.14E-03    0.13E-04    0.22E-06
   1      8    11.813     2.733    0.11E-03    0.10E-04    0.18E-06
 Optimization of the real space projectors (new method)

 maximal supplied QI-value         = 24.76
 optimisation between [QCUT,QGAM] = [ 11.88, 23.77] = [ 39.54,158.16] Ry 
 Optimized for a Real-space Cutoff    1.18 Angstroem

   l    n(q)    QCUT    max X(q) W(low)/X(q) W(high)/X(q)  e(spline) 
   0      8    11.883    20.381    0.77E-04    0.16E-03    0.31E-06
   0      8    11.883    15.268    0.85E-04    0.17E-03    0.34E-06
   1      8    11.883     5.964    0.17E-03    0.30E-04    0.33E-06
   1      8    11.883     5.382    0.15E-03    0.14E-04    0.29E-06
 Optimization of the real space projectors (new method)

 maximal supplied QI-value         = 34.20
 optimisation between [QCUT,QGAM] = [ 11.63, 23.60] = [ 37.87,155.98] Ry 
 Optimized for a Real-space Cutoff    1.18 Angstroem

   l    n(q)    QCUT    max X(q) W(low)/X(q) W(high)/X(q)  e(spline) 
   0      8    11.629    19.460    0.14E-03    0.39E-03    0.21E-06
   0      8    11.629    12.209    0.12E-03    0.36E-03    0.20E-06
   1      8    11.629     4.655    0.22E-03    0.17E-03    0.23E-06
 Optimization of the real space projectors (new method)

 maximal supplied QI-value         = 24.76
 optimisation between [QCUT,QGAM] = [ 11.88, 23.77] = [ 39.54,158.16] Ry 
 Optimized for a Real-space Cutoff    1.18 Angstroem

   l    n(q)    QCUT    max X(q) W(low)/X(q) W(high)/X(q)  e(spline) 
   0      8    11.883    14.049    0.48E-04    0.13E-03    0.23E-06
   0      8    11.883     8.945    0.72E-04    0.16E-03    0.31E-06
   1      8    11.883     7.086    0.14E-03    0.45E-04    0.31E-06
   1      8    11.883     6.747    0.13E-03    0.29E-04    0.28E-06
  PAW_PBE C 08Apr2002                   :
 energy of atom  1       EATOM= -147.1560
 kinetic energy error for atom=    0.0067 (will be added to EATOM!!)
  PAW_PBE O 08Apr2002                   :
 energy of atom  2       EATOM= -432.3788
 kinetic energy error for atom=    0.0196 (will be added to EATOM!!)
  PAW_PBE H 15Jun2001                   :
 energy of atom  3       EATOM=  -12.4884
 kinetic energy error for atom=    0.0009 (will be added to EATOM!!)
  PAW_PBE F 08Apr2002                   :
 energy of atom  4       EATOM= -659.6475
 kinetic energy error for atom=    0.0301 (will be added to EATOM!!)
 
 
 POSCAR:  C  O  H  F                             
  positions in cartesian coordinates
  No initial velocities read in
 exchange correlation table for  LEXCH =        8
   RHO(1)=    0.500       N(1)  =     2000
   RHO(2)=  100.500       N(2)  =     4000

 VTST: version 3.2, (02/03/18)

 CHAIN: initializing optimizer
 
 OPT: Using VASP Dynamics algorithm
 CHAIN: Read ICHAIN            0
 
 POSCAR:  C  O  H  F                             
  positions in cartesian coordinates
  No initial velocities read in
 


--------------------------------------------------------------------------------------------------------


 ion  position               nearest neighbor table
   1  0.326  0.505  0.327-   4 1.27   3 1.27   2 1.53
   2  0.318  0.509  0.380-   5 1.10   6 1.10   7 1.41   1 1.53
   3  0.324  0.643  0.308-   1 1.27
   4  0.333  0.363  0.309-   1 1.27
   5  0.311  0.637  0.393-   2 1.10
   6  0.198  0.497  0.392-   2 1.10
   7  0.482  0.355  0.396-   2 1.41
 

IMPORTANT INFORMATION: All symmetrisations will be switched off!
NOSYMM: (Re-)initialisation of all symmetry stuff for point group C_1.

 
 
 KPOINTS: K-Point Grid                            

Automatic generation of k-mesh.
Space group operators:
 irot       det(A)        alpha          n_x          n_y          n_z        tau_x        tau_y        tau_z
    1     1.000000     0.000000     1.000000     0.000000     0.000000     0.000000     0.000000     0.000000
 
 Subroutine IBZKPT returns following result:
 ===========================================
 
 Found      1 irreducible k-points:
 
 Following reciprocal coordinates:
            Coordinates               Weight
  0.000000  0.000000  0.000000      1.000000
 
 Following cartesian coordinates:
            Coordinates               Weight
  0.000000  0.000000  0.000000      1.000000
 


--------------------------------------------------------------------------------------------------------




 Dimension of arrays:
   k-points           NKPTS =      1   k-points in BZ     NKDIM =      1   number of bands    NBANDS=     24
   number of dos      NEDOS =    301   number of ions     NIONS =      7
   non local maximal  LDIM  =      4   non local SUM 2l+1 LMDIM =      8
   total plane-waves  NPLWV = 917504
   max r-space proj   IRMAX =   3714   max aug-charges    IRDMAX=   7041
   dimension x,y,z NGX =    64 NGY =   64 NGZ =  224
   dimension x,y,z NGXF=   128 NGYF=  128 NGZF=  448
   support grid    NGXF=   128 NGYF=  128 NGZF=  448
   ions per type =               2   2   2   1
   NGX,Y,Z   is equivalent  to a cutoff of  12.79, 12.79, 12.82 a.u.
   NGXF,Y,Z  is equivalent  to a cutoff of  25.59, 25.59, 25.64 a.u.

 SYSTEM =  DIPOLE RUNS                             
 POSCAR =   C  O  H  F                             

 Startparameter for this run:
   NWRITE =      2    write-flag & timer
   PREC   = accura    normal or accurate (medium, high low for compatibility)
   ISTART =      0    job   : 0-new  1-cont  2-samecut
   ICHARG =      2    charge: 1-file 2-atom 10-const
   ISPIN  =      2    spin polarized calculation?
   LNONCOLLINEAR =      F non collinear calculations
   LSORBIT =      F    spin-orbit coupling
   INIWAV =      1    electr: 0-lowe 1-rand  2-diag
   LASPH  =      F    aspherical Exc in radial PAW
   METAGGA=      F    non-selfconsistent MetaGGA calc.

 Electronic Relaxation 1
   ENCUT  =  544.0 eV  39.98 Ry    6.32 a.u.  15.81 15.81 55.25*2*pi/ulx,y,z
   ENINI  =  544.0     initial cutoff
   ENAUG  =  644.9 eV  augmentation charge cutoff
   NELM   =    400;   NELMIN=  2; NELMDL= -5     # of ELM steps 
   EDIFF  = 0.1E-04   stopping-criterion for ELM
   LREAL  =      T    real-space projection
   NLSPLINE    = F    spline interpolate recip. space projectors
   LCOMPAT=      F    compatible to vasp.4.4
   GGA_COMPAT  = T    GGA compatible to vasp.4.4-vasp.4.6
   LMAXPAW     = -100 max onsite density
   LMAXMIX     =    2 max onsite mixed and CHGCAR
   VOSKOWN=      0    Vosko Wilk Nusair interpolation
   ROPT   =   -0.00025  -0.00025  -0.00025  -0.00025
 Ionic relaxation
   EDIFFG = -.1E-01   stopping-criterion for IOM
   NSW    =      0    number of steps for IOM
   NBLOCK =      1;   KBLOCK =      1    inner block; outer block 
   IBRION =     -1    ionic relax: 0-MD 1-quasi-New 2-CG
   NFREE  =      0    steps in history (QN), initial steepest desc. (CG)
   ISIF   =      2    stress and relaxation
   IWAVPR =     10    prediction:  0-non 1-charg 2-wave 3-comb
   ISYM   =      0    0-nonsym 1-usesym 2-fastsym
   LCORR  =      T    Harris-Foulkes like correction to forces

   POTIM  = 0.5000    time-step for ionic-motion
   TEIN   =    0.0    initial temperature
   TEBEG  =    0.0;   TEEND  =   0.0 temperature during run
   SMASS  =  -3.00    Nose mass-parameter (am)
   estimated Nose-frequenzy (Omega)   =  0.10E-29 period in steps =****** mass=  -0.158E-26a.u.
   SCALEE = 1.0000    scale energy and forces
   NPACO  =    256;   APACO  = 16.0  distance and # of slots for P.C.
   PSTRESS=    0.0 pullay stress

  Mass of Ions in am
   POMASS =  12.01 16.00  1.00 19.00
  Ionic Valenz
   ZVAL   =   4.00  6.00  1.00  7.00
  Atomic Wigner-Seitz radii
   RWIGS  =  -1.00 -1.00 -1.00 -1.00
  virtual crystal weights 
   VCA    =   1.00  1.00  1.00  1.00
   NELECT =      29.0000    total number of electrons
   NUPDOWN=      -1.0000    fix difference up-down

 DOS related values:
   EMIN   =  10.00;   EMAX   =-10.00  energy-range for DOS
   EFERMI =   0.00
   ISMEAR =     0;   SIGMA  =   0.00  broadening in eV -4-tet -1-fermi 0-gaus

 Electronic relaxation 2 (details)
   IALGO  =     68    algorithm
   LDIAG  =      T    sub-space diagonalisation (order eigenvalues)
   LSUBROT=      F    optimize rotation matrix (better conditioning)
   TURBO    =      0    0=normal 1=particle mesh
   IRESTART =      0    0=no restart 2=restart with 2 vectors
   NREBOOT  =      0    no. of reboots
   NMIN     =      0    reboot dimension
   EREF     =   0.00    reference energy to select bands
   IMIX   =      4    mixing-type and parameters
     AMIX     =   0.40;   BMIX     =  1.00
     AMIX_MAG =   1.60;   BMIX_MAG =  1.00
     AMIN     =   0.10
     WC   =   100.;   INIMIX=   1;  MIXPRE=   1;  MAXMIX= -45

 Intra band minimization:
   WEIMIN = 0.0000     energy-eigenvalue tresh-hold
   EBREAK =  0.10E-06  absolut break condition
   DEPER  =   0.30     relativ break condition  

   TIME   =   0.40     timestep for ELM

  volume/ion in A,a.u.               =     248.55      1677.28
  Fermi-wavevector in a.u.,A,eV,Ry     =   0.418189  0.790262  2.379410  0.174882
  Thomas-Fermi vector in A             =   1.378923
 
 Write flags
   LWAVE        =      F    write WAVECAR
   LDOWNSAMPLE  =      F    k-point downsampling of WAVECAR
   LCHARG       =      F    write CHGCAR
   LVTOT        =      F    write LOCPOT, total local potential
   LVHAR        =      F    write LOCPOT, Hartree potential only
   LELF         =      F    write electronic localiz. function (ELF)
   LORBIT       =      0    0 simple, 1 ext, 2 COOP (PROOUT), +10 PAW based schemes


 Dipole corrections
   LMONO  =      F    monopole corrections only (constant potential shift)
   LDIPOL =      T    correct potential (dipole corrections)
   IDIPOL =      3    1-x, 2-y, 3-z, 4-all directions 
   EPSILON=  1.0000000 bulk dielectric constant

 Exchange correlation treatment:
   GGA     =    PE    GGA type
   LEXCH   =     8    internal setting for exchange type
   VOSKOWN=      0    Vosko Wilk Nusair interpolation
   LHFCALC =     F    Hartree Fock is set to
   LHFONE  =     F    Hartree Fock one center treatment
   AEXX    =    0.0000 exact exchange contribution

 Linear response parameters
   LEPSILON=     F    determine dielectric tensor
   LRPA    =     F    only Hartree local field effects (RPA)
   LNABLA  =     F    use nabla operator in PAW spheres
   LVEL    =     F    velocity operator in full k-point grid
   LINTERFAST=   F  fast interpolation
   KINTER  =     0    interpolate to denser k-point grid
   CSHIFT  =0.1000    complex shift for real part using Kramers Kronig
   OMEGAMAX=  -1.0    maximum frequency
   DEG_THRESHOLD= 0.2000000E-02 threshold for treating states as degnerate
   RTIME   =   -0.100 relaxation time in fs
  (WPLASMAI=    0.000 imaginary part of plasma frequency in eV, 0.658/RTIME)
   DFIELD  = 0.0000000 0.0000000 0.0000000 field for delta impulse in time
 
 Orbital magnetization related:
   ORBITALMAG=     F  switch on orbital magnetization
   LCHIMAG   =     F  perturbation theory with respect to B field
   DQ        =  0.001000  dq finite difference perturbation B field
   LLRAUG    =     F  two centre corrections for induced B field



--------------------------------------------------------------------------------------------------------


 Static calculation
 charge density and potential will be updated during run
 spin polarized calculation
 RMM-DIIS sequential band-by-band and
  variant of blocked Davidson during initial phase
 perform sub-space diagonalisation
    before iterative eigenvector-optimisation
 modified Broyden-mixing scheme, WC =      100.0
 initial mixing is a Kerker type mixing with AMIX =  0.4000 and BMIX =      1.0000
 Hartree-type preconditioning will be used
 using additional bands            9
 real space projection scheme for non local part
 use partial core corrections
 calculate Harris-corrections to forces 
   (improved forces if not selfconsistent)
 use gradient corrections 
 use of overlap-Matrix (Vanderbilt PP)
 Gauss-broadening in eV      SIGMA  =   0.00


--------------------------------------------------------------------------------------------------------


  energy-cutoff  :      544.00
  volume of cell :     1739.83
      direct lattice vectors                 reciprocal lattice vectors
     8.315596000  0.000000000  0.000000000     0.120255962 -0.069429620  0.000000000
     4.157788000  7.201520000  0.000000000     0.000000000  0.138859574  0.000000000
     0.000000000  0.000000000 29.052834000     0.000000000  0.000000000  0.034420050

  length of vectors
     8.315596000  8.315593266 29.052834000     0.138859528  0.138859574  0.034420050


 
 k-points in units of 2pi/SCALE and weight: K-Point Grid                            
   0.00000000  0.00000000  0.00000000       1.000
 
 k-points in reciprocal lattice and weights: K-Point Grid                            
   0.00000000  0.00000000  0.00000000       1.000
 
 position of ions in fractional coordinates (direct lattice) 
   0.32567926  0.50472025  0.32735963
   0.31808126  0.50945953  0.37984553
   0.32413147  0.64311159  0.30827409
   0.33275238  0.36326206  0.30869009
   0.31068649  0.63701413  0.39283903
   0.19845071  0.49748761  0.39157567
   0.48182138  0.35507198  0.39648397
 
 position of ions in cartesian coordinates  (Angst):
   4.80673700  3.63475300  9.51072500
   4.76326000  3.66888300 11.03558900
   5.36926800  4.63138100  8.95623600
   4.27740100  2.61603900  8.96832200
   5.23211300  4.58747000 11.41308700
   3.71868400  3.58266700 11.37638300
   5.48294600  2.55705800 11.51898300
 


--------------------------------------------------------------------------------------------------------


 k-point  1 :   0.0000 0.0000 0.0000  plane waves:   50139

 maximum and minimum number of plane-waves per node :     12536    12533

 maximum number of plane-waves:     50139
 maximum index in each direction: 
   IXMAX=   15   IYMAX=   15   IZMAX=   55
   IXMIN=  -15   IYMIN=  -15   IZMIN=  -55


 real space projection operators:
  total allocation   :       1388.53 KBytes
  max/ min on nodes  :        349.97        344.03


 parallel 3D FFT for wavefunctions:
    minimum data exchange during FFTs selected (reduces bandwidth)
 parallel 3D FFT for charge:
    minimum data exchange during FFTs selected (reduces bandwidth)


 total amount of memory used by VASP MPI-rank0   118092. kBytes
=======================================================================

   base      :      30000. kBytes
   nonlr-proj:        867. kBytes
   fftplans  :      22218. kBytes
   grid      :      62586. kBytes
   one-center:         12. kBytes
   wavefun   :       2409. kBytes
 
     INWAV:  cpu time    0.0000: real time    0.0002
 Broyden mixing: mesh for mixing (old mesh)
   NGX = 31   NGY = 31   NGZ =111
  (NGX  =128   NGY  =128   NGZ  =448)
  gives a total of 106671 points

 initial charge density was supplied:
 charge density of overlapping atoms calculated
 number of electron      29.0000000 magnetization       7.0000000
 keeping initial charge density in first step


--------------------------------------------------------------------------------------------------------


 Maximum index for non-local projection operator          905
 Maximum index for augmentation-charges          468 (set IRDMAX)


--------------------------------------------------------------------------------------------------------


 First call to EWALD:  gamma=   0.147
 Maximum number of real-space cells 4x 4x 1
 Maximum number of reciprocal cells 2x 2x 6

    FEWALD:  cpu time    0.0013: real time    0.0013


--------------------------------------- Iteration      1(   1)  ---------------------------------------


    POTLOK:  cpu time    0.7463: real time    0.7762
    SETDIJ:  cpu time    0.0150: real time    0.0151
     EDDAV:  cpu time    0.9624: real time    0.9678
       DOS:  cpu time    0.0003: real time    0.0003
    --------------------------------------------
      LOOP:  cpu time    1.7239: real time    1.7594

 eigenvalue-minimisations  :   128
 total energy-change (2. order) : 0.2587575E+03  (-0.7701450E+03)
 number of electron      29.0000000 magnetization       7.0000000
 augmentation part       29.0000000 magnetization       7.0000000

 DIPCOR: dipole corrections for dipol
 direction  3 min pos   269,
 dipolmoment           0.000000      0.000000     -0.000360 electrons x Angstroem
 Tr[quadrupol]      -595.190163

 energy correction for charged system         0.000000 eV
 dipol+quadrupol energy correction           -0.000000 eV
 added-field ion interaction          0.007884 eV  (added to PSCEN)


 Free energy of the ion-electron system (eV)
  ---------------------------------------------------
  alpha Z        PSCENC =         1.96397960
  Ewald energy   TEWEN  =      2420.26217003
  -Hartree energ DENC   =     -3917.91198249
  -exchange      EXHF   =         0.00000000
  -V(xc)+E(xc)   XCENC  =       123.78814988
  PAW double counting   =      1452.24698102    -1462.06967175
  entropy T*S    EENTRO =        -0.00000000
  eigenvalues    EBANDS =      -203.13143505
  atomic energy  EATOM  =      1843.60931939
  Solvation  Ecorr_sol  =         0.00000000
  ---------------------------------------------------
  free energy    TOTEN  =       258.75751062 eV

  energy without entropy =      258.75751062  energy(sigma->0) =      258.75751062


--------------------------------------------------------------------------------------------------------




--------------------------------------- Iteration      1(   2)  ---------------------------------------


     EDDAV:  cpu time    1.3326: real time    1.3411
       DOS:  cpu time    0.0001: real time    0.0001
    --------------------------------------------
      LOOP:  cpu time    1.3327: real time    1.3412

 eigenvalue-minimisations  :   192
 total energy-change (2. order) :-0.2039469E+03  (-0.1945950E+03)
 number of electron      29.0000000 magnetization       7.0000000
 augmentation part       29.0000000 magnetization       7.0000000

 DIPCOR: dipole corrections for dipol
 direction  3 min pos   269,
 dipolmoment           0.000000      0.000000     -0.000360 electrons x Angstroem
 Tr[quadrupol]      -595.190163

 energy correction for charged system         0.000000 eV
 dipol+quadrupol energy correction           -0.000000 eV
 added-field ion interaction          0.007884 eV  (added to PSCEN)


 Free energy of the ion-electron system (eV)
  ---------------------------------------------------
  alpha Z        PSCENC =         1.96397960
  Ewald energy   TEWEN  =      2420.26217003
  -Hartree energ DENC   =     -3917.91198249
  -exchange      EXHF   =         0.00000000
  -V(xc)+E(xc)   XCENC  =       123.78814988
  PAW double counting   =      1452.24698102    -1462.06967175
  entropy T*S    EENTRO =        -0.00000000
  eigenvalues    EBANDS =      -407.07835502
  atomic energy  EATOM  =      1843.60931939
  Solvation  Ecorr_sol  =         0.00000000
  ---------------------------------------------------
  free energy    TOTEN  =        54.81059065 eV

  energy without entropy =       54.81059065  energy(sigma->0) =       54.81059065


--------------------------------------------------------------------------------------------------------




--------------------------------------- Iteration      1(   3)  ---------------------------------------


     EDDAV:  cpu time    1.0068: real time    1.0129
       DOS:  cpu time    0.0001: real time    0.0001
    --------------------------------------------
      LOOP:  cpu time    1.0070: real time    1.0131

 eigenvalue-minimisations  :   136
 total energy-change (2. order) :-0.8688877E+02  (-0.8621560E+02)
 number of electron      29.0000000 magnetization       7.0000000
 augmentation part       29.0000000 magnetization       7.0000000

 DIPCOR: dipole corrections for dipol
 direction  3 min pos   269,
 dipolmoment           0.000000      0.000000     -0.000360 electrons x Angstroem
 Tr[quadrupol]      -595.190163

 energy correction for charged system         0.000000 eV
 dipol+quadrupol energy correction           -0.000000 eV
 added-field ion interaction          0.007884 eV  (added to PSCEN)


 Free energy of the ion-electron system (eV)
  ---------------------------------------------------
  alpha Z        PSCENC =         1.96397960
  Ewald energy   TEWEN  =      2420.26217003
  -Hartree energ DENC   =     -3917.91198249
  -exchange      EXHF   =         0.00000000
  -V(xc)+E(xc)   XCENC  =       123.78814988
  PAW double counting   =      1452.24698102    -1462.06967175
  entropy T*S    EENTRO =        -0.00000000
  eigenvalues    EBANDS =      -493.96712142
  atomic energy  EATOM  =      1843.60931939
  Solvation  Ecorr_sol  =         0.00000000
  ---------------------------------------------------
  free energy    TOTEN  =       -32.07817575 eV

  energy without entropy =      -32.07817575  energy(sigma->0) =      -32.07817575


--------------------------------------------------------------------------------------------------------




--------------------------------------- Iteration      1(   4)  ---------------------------------------


     EDDAV:  cpu time    0.9998: real time    1.0067
       DOS:  cpu time    0.0001: real time    0.0001
    --------------------------------------------
      LOOP:  cpu time    0.9999: real time    1.0068

 eigenvalue-minimisations  :   136
 total energy-change (2. order) :-0.6010506E+01  (-0.6003748E+01)
 number of electron      29.0000000 magnetization       7.0000000
 augmentation part       29.0000000 magnetization       7.0000000

 DIPCOR: dipole corrections for dipol
 direction  3 min pos   269,
 dipolmoment           0.000000      0.000000     -0.000360 electrons x Angstroem
 Tr[quadrupol]      -595.190163

 energy correction for charged system         0.000000 eV
 dipol+quadrupol energy correction           -0.000000 eV
 added-field ion interaction          0.007884 eV  (added to PSCEN)


 Free energy of the ion-electron system (eV)
  ---------------------------------------------------
  alpha Z        PSCENC =         1.96397960
  Ewald energy   TEWEN  =      2420.26217003
  -Hartree energ DENC   =     -3917.91198249
  -exchange      EXHF   =         0.00000000
  -V(xc)+E(xc)   XCENC  =       123.78814988
  PAW double counting   =      1452.24698102    -1462.06967175
  entropy T*S    EENTRO =        -0.00000000
  eigenvalues    EBANDS =      -499.97762701
  atomic energy  EATOM  =      1843.60931939
  Solvation  Ecorr_sol  =         0.00000000
  ---------------------------------------------------
  free energy    TOTEN  =       -38.08868134 eV

  energy without entropy =      -38.08868134  energy(sigma->0) =      -38.08868134


--------------------------------------------------------------------------------------------------------




--------------------------------------- Iteration      1(   5)  ---------------------------------------


     EDDAV:  cpu time    0.9086: real time    0.9139
       DOS:  cpu time    0.0001: real time    0.0001
    CHARGE:  cpu time    0.1015: real time    0.1021
    MIXING:  cpu time    0.0217: real time    0.0218
    --------------------------------------------
      LOOP:  cpu time    1.0319: real time    1.0379

 eigenvalue-minimisations  :   120
 total energy-change (2. order) :-0.4746254E-01  (-0.4744432E-01)
 number of electron      29.0000003 magnetization       6.5710546
 augmentation part        2.8984791 magnetization       5.7855944

 DIPCOR: dipole corrections for dipol
 direction  3 min pos   269,
 dipolmoment           0.000000      0.000000     -0.000360 electrons x Angstroem
 Tr[quadrupol]      -595.190163

 energy correction for charged system         0.000000 eV
 dipol+quadrupol energy correction           -0.000000 eV
 added-field ion interaction          0.007884 eV  (added to PSCEN)


 Broyden mixing:
  rms(total) = 0.17099E+01    rms(broyden)= 0.17093E+01
  rms(prec ) = 0.17372E+01
  weight for this iteration     100.00

 Free energy of the ion-electron system (eV)
  ---------------------------------------------------
  alpha Z        PSCENC =         1.96397960
  Ewald energy   TEWEN  =      2420.26217003
  -Hartree energ DENC   =     -3917.91198249
  -exchange      EXHF   =         0.00000000
  -V(xc)+E(xc)   XCENC  =       123.78814988
  PAW double counting   =      1452.24698102    -1462.06967175
  entropy T*S    EENTRO =        -0.00000000
  eigenvalues    EBANDS =      -500.02508955
  atomic energy  EATOM  =      1843.60931939
  Solvation  Ecorr_sol  =         0.00000000
  ---------------------------------------------------
  free energy    TOTEN  =       -38.13614388 eV

  energy without entropy =      -38.13614388  energy(sigma->0) =      -38.13614388


--------------------------------------------------------------------------------------------------------




--------------------------------------- Iteration      1(   6)  ---------------------------------------


    POTLOK:  cpu time    0.7551: real time    0.7606
    SETDIJ:  cpu time    0.0069: real time    0.5163
    EDDIAG:  cpu time    0.1683: real time    0.1693
  RMM-DIIS:  cpu time    0.7511: real time    0.7545
    ORTHCH:  cpu time    0.0107: real time    0.0107
       DOS:  cpu time    0.0002: real time    0.0002
    CHARGE:  cpu time    0.1007: real time    0.1012
    MIXING:  cpu time    0.0209: real time    0.0210
    --------------------------------------------
      LOOP:  cpu time    1.8140: real time    2.3339

 eigenvalue-minimisations  :   112
 total energy-change (2. order) : 0.1583555E+02  (-0.2923440E+01)
 number of electron      29.0000003 magnetization       6.3193355
 augmentation part        2.7627209 magnetization       5.4222540

 DIPCOR: dipole corrections for dipol
 direction  3 min pos   269,
 dipolmoment           0.000000      0.000000     -0.115057 electrons x Angstroem
 Tr[quadrupol]      -597.717158

 energy correction for charged system         0.000000 eV
 dipol+quadrupol energy correction           -0.000688 eV
 added-field ion interaction          2.517867 eV  (added to PSCEN)


 Broyden mixing:
  rms(total) = 0.13112E+01    rms(broyden)= 0.13099E+01
  rms(prec ) = 0.13415E+01
  weight for this iteration     100.00

 eigenvalues of (default mixing * dielectric matrix)
  average eigenvalue GAMMA=   0.6226
  0.6226

 Free energy of the ion-electron system (eV)
  ---------------------------------------------------
  alpha Z        PSCENC =         4.47327394
  Ewald energy   TEWEN  =      2420.26217003
  -Hartree energ DENC   =     -3958.17037727
  -exchange      EXHF   =         0.00000000
  -V(xc)+E(xc)   XCENC  =       139.98369366
  PAW double counting   =      1782.86351560    -1793.30679180
  entropy T*S    EENTRO =        -0.00000000
  eigenvalues    EBANDS =      -462.01539636
  atomic energy  EATOM  =      1843.60931939
  Solvation  Ecorr_sol  =         0.00000000
  ---------------------------------------------------
  free energy    TOTEN  =       -22.30059279 eV

  energy without entropy =      -22.30059279  energy(sigma->0) =      -22.30059279


--------------------------------------------------------------------------------------------------------




--------------------------------------- Iteration      1(   7)  ---------------------------------------


    POTLOK:  cpu time    0.7517: real time    0.7563
    SETDIJ:  cpu time    0.0138: real time    0.0139
    EDDIAG:  cpu time    0.1688: real time    0.1698
  RMM-DIIS:  cpu time    0.7635: real time    0.7671
    ORTHCH:  cpu time    0.0105: real time    0.0106
       DOS:  cpu time    0.0002: real time    0.0002
    CHARGE:  cpu time    0.0990: real time    0.0995
    MIXING:  cpu time    0.0216: real time    0.0217
    --------------------------------------------
      LOOP:  cpu time    1.8291: real time    1.8390

 eigenvalue-minimisations  :   122
 total energy-change (2. order) :-0.6143464E+01  (-0.6261785E+00)
 number of electron      29.0000001 magnetization       6.0672634
 augmentation part        2.7247988 magnetization       5.1883869

 DIPCOR: dipole corrections for dipol
 direction  3 min pos   269,
 dipolmoment           0.000000      0.000000     -0.107309 electrons x Angstroem
 Tr[quadrupol]      -597.725620

 energy correction for charged system         0.000000 eV
 dipol+quadrupol energy correction           -0.000599 eV
 added-field ion interaction          2.348306 eV  (added to PSCEN)


 Broyden mixing:
  rms(total) = 0.11312E+01    rms(broyden)= 0.11297E+01
  rms(prec ) = 0.11578E+01
  weight for this iteration     100.00

 eigenvalues of (default mixing * dielectric matrix)
  average eigenvalue GAMMA=   0.6172
  0.8853  0.3491

 Free energy of the ion-electron system (eV)
  ---------------------------------------------------
  alpha Z        PSCENC =         4.30380286
  Ewald energy   TEWEN  =      2420.26217003
  -Hartree energ DENC   =     -3970.72196127
  -exchange      EXHF   =         0.00000000
  -V(xc)+E(xc)   XCENC  =       135.71888110
  PAW double counting   =      1927.00545895    -1937.59118918
  entropy T*S    EENTRO =        -0.00000000
  eigenvalues    EBANDS =      -451.03053849
  atomic energy  EATOM  =      1843.60931939
  Solvation  Ecorr_sol  =         0.00000000
  ---------------------------------------------------
  free energy    TOTEN  =       -28.44405660 eV

  energy without entropy =      -28.44405660  energy(sigma->0) =      -28.44405660


--------------------------------------------------------------------------------------------------------




--------------------------------------- Iteration      1(   8)  ---------------------------------------


    POTLOK:  cpu time    0.7506: real time    0.7552
    SETDIJ:  cpu time    0.0121: real time    0.0121
    EDDIAG:  cpu time    0.1634: real time    0.1643
  RMM-DIIS:  cpu time    0.6869: real time    0.6904
    ORTHCH:  cpu time    0.0104: real time    0.0105
       DOS:  cpu time    0.0002: real time    0.0002
    CHARGE:  cpu time    0.1011: real time    0.1016
    MIXING:  cpu time    0.0218: real time    0.0219
    --------------------------------------------
      LOOP:  cpu time    1.7464: real time    1.7562

 eigenvalue-minimisations  :   118
 total energy-change (2. order) :-0.3049552E+01  (-0.2520332E+00)
 number of electron      29.0000001 magnetization       5.6065285
 augmentation part        2.7059891 magnetization       4.7548432

 DIPCOR: dipole corrections for dipol
 direction  3 min pos   269,
 dipolmoment           0.000000      0.000000     -0.105520 electrons x Angstroem
 Tr[quadrupol]      -597.786791

 energy correction for charged system         0.000000 eV
 dipol+quadrupol energy correction           -0.000579 eV
 added-field ion interaction          2.309156 eV  (added to PSCEN)


 Broyden mixing:
  rms(total) = 0.59711E+00    rms(broyden)= 0.59699E+00
  rms(prec ) = 0.61060E+00
  weight for this iteration     100.00

 eigenvalues of (default mixing * dielectric matrix)
  average eigenvalue GAMMA=   0.7927
  0.9669  0.9669  0.4445

 Free energy of the ion-electron system (eV)
  ---------------------------------------------------
  alpha Z        PSCENC =         4.26467192
  Ewald energy   TEWEN  =      2420.26217003
  -Hartree energ DENC   =     -3979.07002020
  -exchange      EXHF   =         0.00000000
  -V(xc)+E(xc)   XCENC  =       133.32718040
  PAW double counting   =      2053.81798161    -2064.45170381
  entropy T*S    EENTRO =        -0.00000000
  eigenvalues    EBANDS =      -443.25320818
  atomic energy  EATOM  =      1843.60931939
  Solvation  Ecorr_sol  =         0.00000000
  ---------------------------------------------------
  free energy    TOTEN  =       -31.49360885 eV

  energy without entropy =      -31.49360885  energy(sigma->0) =      -31.49360885


--------------------------------------------------------------------------------------------------------




--------------------------------------- Iteration      1(   9)  ---------------------------------------


    POTLOK:  cpu time    0.7501: real time    0.7551
    SETDIJ:  cpu time    0.0117: real time    0.0117
    EDDIAG:  cpu time    0.1689: real time    0.1697
  RMM-DIIS:  cpu time    0.6966: real time    0.6999
    ORTHCH:  cpu time    0.0107: real time    0.0108
       DOS:  cpu time    0.0002: real time    0.0002
    CHARGE:  cpu time    0.0971: real time    0.0976
    MIXING:  cpu time    0.0227: real time    0.0228
    --------------------------------------------
      LOOP:  cpu time    1.7581: real time    1.7680

 eigenvalue-minimisations  :   118
 total energy-change (2. order) :-0.3195346E+01  (-0.1628297E+00)
 number of electron      29.0000004 magnetization       5.3638123
 augmentation part        2.7113768 magnetization       4.5251496

 DIPCOR: dipole corrections for dipol
 direction  3 min pos   269,
 dipolmoment           0.000000      0.000000     -0.122633 electrons x Angstroem
 Tr[quadrupol]      -598.132982

 energy correction for charged system         0.000000 eV
 dipol+quadrupol energy correction           -0.000782 eV
 added-field ion interaction          2.683640 eV  (added to PSCEN)


 Broyden mixing:
  rms(total) = 0.96711E+00    rms(broyden)= 0.96508E+00
  rms(prec ) = 0.98964E+00
  weight for this iteration     100.00

 eigenvalues of (default mixing * dielectric matrix)
  average eigenvalue GAMMA=   0.7482
  1.1752  0.9173  0.4501  0.4501

 Free energy of the ion-electron system (eV)
  ---------------------------------------------------
  alpha Z        PSCENC =         4.63895332
  Ewald energy   TEWEN  =      2420.26217003
  -Hartree energ DENC   =     -3985.91699282
  -exchange      EXHF   =         0.00000000
  -V(xc)+E(xc)   XCENC  =       131.29596312
  PAW double counting   =      2225.56332975    -2236.08931486
  entropy T*S    EENTRO =        -0.00000000
  eigenvalues    EBANDS =      -438.05238287
  atomic energy  EATOM  =      1843.60931939
  Solvation  Ecorr_sol  =         0.00000000
  ---------------------------------------------------
  free energy    TOTEN  =       -34.68895495 eV

  energy without entropy =      -34.68895495  energy(sigma->0) =      -34.68895495


--------------------------------------------------------------------------------------------------------




--------------------------------------- Iteration      1(  10)  ---------------------------------------


    POTLOK:  cpu time    0.7452: real time    0.7499
    SETDIJ:  cpu time    0.0124: real time    0.0124
    EDDIAG:  cpu time    0.1703: real time    0.1711
  RMM-DIIS:  cpu time    0.6892: real time    0.6926
    ORTHCH:  cpu time    0.0105: real time    0.0106
       DOS:  cpu time    0.0002: real time    0.0002
    CHARGE:  cpu time    0.1003: real time    0.1008
    MIXING:  cpu time    0.0231: real time    0.0232
    --------------------------------------------
      LOOP:  cpu time    1.7513: real time    1.7609

 eigenvalue-minimisations  :   117
 total energy-change (2. order) :-0.7068422E+00  (-0.4605655E-01)
 number of electron      29.0000003 magnetization       5.2614710
 augmentation part        2.7120335 magnetization       4.4242795

 DIPCOR: dipole corrections for dipol
 direction  3 min pos   269,
 dipolmoment           0.000000      0.000000     -0.134392 electrons x Angstroem
 Tr[quadrupol]      -598.342724

 energy correction for charged system         0.000000 eV
 dipol+quadrupol energy correction           -0.000939 eV
 added-field ion interaction          2.940975 eV  (added to PSCEN)


 Broyden mixing:
  rms(total) = 0.57114E+00    rms(broyden)= 0.57096E+00
  rms(prec ) = 0.58531E+00
  weight for this iteration     100.00

 eigenvalues of (default mixing * dielectric matrix)
  average eigenvalue GAMMA=   0.7228
  0.9288  0.9288  0.5347  0.6109  0.6109

 Free energy of the ion-electron system (eV)
  ---------------------------------------------------
  alpha Z        PSCENC =         4.89613068
  Ewald energy   TEWEN  =      2420.26217003
  -Hartree energ DENC   =     -3988.31204914
  -exchange      EXHF   =         0.00000000
  -V(xc)+E(xc)   XCENC  =       130.64974882
  PAW double counting   =      2289.06604998    -2299.56909395
  entropy T*S    EENTRO =        -0.00000000
  eigenvalues    EBANDS =      -435.99807294
  atomic energy  EATOM  =      1843.60931939
  Solvation  Ecorr_sol  =         0.00000000
  ---------------------------------------------------
  free energy    TOTEN  =       -35.39579713 eV

  energy without entropy =      -35.39579713  energy(sigma->0) =      -35.39579713


--------------------------------------------------------------------------------------------------------




--------------------------------------- Iteration      1(  11)  ---------------------------------------


    POTLOK:  cpu time    0.7435: real time    0.7482
    SETDIJ:  cpu time    0.0131: real time    0.0132
    EDDIAG:  cpu time    0.1638: real time    0.1646
  RMM-DIIS:  cpu time    0.7000: real time    0.7034
    ORTHCH:  cpu time    0.0105: real time    0.0105
       DOS:  cpu time    0.0002: real time    0.0002
    CHARGE:  cpu time    0.0986: real time    0.0991
    MIXING:  cpu time    0.0243: real time    0.0244
    --------------------------------------------
      LOOP:  cpu time    1.7540: real time    1.7637

 eigenvalue-minimisations  :   118
 total energy-change (2. order) :-0.1672189E+00  (-0.1589969E-01)
 number of electron      29.0000003 magnetization       4.9447458
 augmentation part        2.7033683 magnetization       4.1093950

 DIPCOR: dipole corrections for dipol
 direction  3 min pos   269,
 dipolmoment           0.000000      0.000000     -0.151181 electrons x Angstroem
 Tr[quadrupol]      -598.635384

 energy correction for charged system         0.000000 eV
 dipol+quadrupol energy correction           -0.001189 eV
 added-field ion interaction          3.308388 eV  (added to PSCEN)


 Broyden mixing:
  rms(total) = 0.30365E+00    rms(broyden)= 0.30305E+00
  rms(prec ) = 0.30820E+00
  weight for this iteration     100.00

 eigenvalues of (default mixing * dielectric matrix)
  average eigenvalue GAMMA=   0.8501
  1.0045  1.0045  0.9653  0.9653  0.5805  0.5805

 Free energy of the ion-electron system (eV)
  ---------------------------------------------------
  alpha Z        PSCENC =         5.26329521
  Ewald energy   TEWEN  =      2420.26217003
  -Hartree energ DENC   =     -3988.47085504
  -exchange      EXHF   =         0.00000000
  -V(xc)+E(xc)   XCENC  =       130.48881081
  PAW double counting   =      2293.38266644    -2303.86706869
  entropy T*S    EENTRO =        -0.00000000
  eigenvalues    EBANDS =      -436.23135415
  atomic energy  EATOM  =      1843.60931939
  Solvation  Ecorr_sol  =         0.00000000
  ---------------------------------------------------
  free energy    TOTEN  =       -35.56301599 eV

  energy without entropy =      -35.56301599  energy(sigma->0) =      -35.56301599


--------------------------------------------------------------------------------------------------------




--------------------------------------- Iteration      1(  12)  ---------------------------------------


    POTLOK:  cpu time    0.9240: real time    0.9291
    SETDIJ:  cpu time    0.0121: real time    0.0121
    EDDIAG:  cpu time    0.1673: real time    0.1681
  RMM-DIIS:  cpu time    0.6420: real time    0.6453
    ORTHCH:  cpu time    0.0106: real time    0.0106
       DOS:  cpu time    0.0002: real time    0.0002
    CHARGE:  cpu time    0.0980: real time    0.0985
    MIXING:  cpu time    0.0239: real time    0.0240
    --------------------------------------------
      LOOP:  cpu time    1.8782: real time    1.8880

 eigenvalue-minimisations  :   107
 total energy-change (2. order) :-0.9308347E+00  (-0.2440272E-01)
 number of electron      29.0000003 magnetization       4.5802557
 augmentation part        2.6955900 magnetization       3.7505219

 DIPCOR: dipole corrections for dipol
 direction  3 min pos   269,
 dipolmoment           0.000000      0.000000     -0.185899 electrons x Angstroem
 Tr[quadrupol]      -599.253413

 energy correction for charged system         0.000000 eV
 dipol+quadrupol energy correction           -0.001797 eV
 added-field ion interaction          4.068128 eV  (added to PSCEN)


 Broyden mixing:
  rms(total) = 0.63742E+00    rms(broyden)= 0.63708E+00
  rms(prec ) = 0.65327E+00
  weight for this iteration     100.00

 eigenvalues of (default mixing * dielectric matrix)
  average eigenvalue GAMMA=   0.8567
  1.4316  1.0773  0.9337  0.9337  0.4907  0.5649  0.5649

 Free energy of the ion-electron system (eV)
  ---------------------------------------------------
  alpha Z        PSCENC =         6.02242613
  Ewald energy   TEWEN  =      2420.26217003
  -Hartree energ DENC   =     -3988.95881682
  -exchange      EXHF   =         0.00000000
  -V(xc)+E(xc)   XCENC  =       129.76119186
  PAW double counting   =      2327.13628198    -2337.55268067
  entropy T*S    EENTRO =        -0.00000000
  eigenvalues    EBANDS =      -436.77374258
  atomic energy  EATOM  =      1843.60931939
  Solvation  Ecorr_sol  =         0.00000000
  ---------------------------------------------------
  free energy    TOTEN  =       -36.49385067 eV

  energy without entropy =      -36.49385067  energy(sigma->0) =      -36.49385067


--------------------------------------------------------------------------------------------------------




--------------------------------------- Iteration      1(  13)  ---------------------------------------


    POTLOK:  cpu time    0.7499: real time    0.7546
    SETDIJ:  cpu time    0.0124: real time    0.0125
    EDDIAG:  cpu time    0.1685: real time    0.1693
  RMM-DIIS:  cpu time    0.6981: real time    0.7015
    ORTHCH:  cpu time    0.0107: real time    0.0107
       DOS:  cpu time    0.0002: real time    0.0002
    CHARGE:  cpu time    0.0998: real time    0.1003
    MIXING:  cpu time    0.0241: real time    0.0242
    --------------------------------------------
      LOOP:  cpu time    1.7635: real time    1.7731

 eigenvalue-minimisations  :   113
 total energy-change (2. order) :-0.7013164E+00  (-0.1976353E-01)
 number of electron      29.0000001 magnetization       4.3147110
 augmentation part        2.6897840 magnetization       3.4936082

 DIPCOR: dipole corrections for dipol
 direction  3 min pos   269,
 dipolmoment           0.000000      0.000000     -0.214971 electrons x Angstroem
 Tr[quadrupol]      -599.743161

 energy correction for charged system         0.000000 eV
 dipol+quadrupol energy correction           -0.002403 eV
 added-field ion interaction          4.704331 eV  (added to PSCEN)


 Broyden mixing:
  rms(total) = 0.48285E+00    rms(broyden)= 0.48018E+00
  rms(prec ) = 0.49165E+00
  weight for this iteration     100.00

 eigenvalues of (default mixing * dielectric matrix)
  average eigenvalue GAMMA=   0.9285
  2.1691  0.9961  0.9961  1.0562  0.7446  0.5159  0.5159  0.4341

 Free energy of the ion-electron system (eV)
  ---------------------------------------------------
  alpha Z        PSCENC =         6.65802292
  Ewald energy   TEWEN  =      2420.26217003
  -Hartree energ DENC   =     -3990.01032729
  -exchange      EXHF   =         0.00000000
  -V(xc)+E(xc)   XCENC  =       129.17476641
  PAW double counting   =      2366.33647014    -2376.71419030
  entropy T*S    EENTRO =        -0.00000000
  eigenvalues    EBANDS =      -436.51139842
  atomic energy  EATOM  =      1843.60931939
  Solvation  Ecorr_sol  =         0.00000000
  ---------------------------------------------------
  free energy    TOTEN  =       -37.19516712 eV

  energy without entropy =      -37.19516712  energy(sigma->0) =      -37.19516712


--------------------------------------------------------------------------------------------------------




--------------------------------------- Iteration      1(  14)  ---------------------------------------


    POTLOK:  cpu time    0.7431: real time    0.7476
    SETDIJ:  cpu time    0.0121: real time    0.0122
    EDDIAG:  cpu time    0.1665: real time    0.1673
  RMM-DIIS:  cpu time    0.6889: real time    0.6925
    ORTHCH:  cpu time    0.0105: real time    0.0106
       DOS:  cpu time    0.0001: real time    0.0001
    CHARGE:  cpu time    0.0985: real time    0.0990
    MIXING:  cpu time    0.0262: real time    0.0263
    --------------------------------------------
      LOOP:  cpu time    1.7462: real time    1.7557

 eigenvalue-minimisations  :   110
 total energy-change (2. order) :-0.6574786E+00  (-0.8019776E-02)
 number of electron      29.0000002 magnetization       3.9220106
 augmentation part        2.6937496 magnetization       3.1029219

 DIPCOR: dipole corrections for dipol
 direction  3 min pos   269,
 dipolmoment           0.000000      0.000000     -0.228007 electrons x Angstroem
 Tr[quadrupol]      -599.904626

 energy correction for charged system         0.000000 eV
 dipol+quadrupol energy correction           -0.002704 eV
 added-field ion interaction          4.989613 eV  (added to PSCEN)


 Broyden mixing:
  rms(total) = 0.32644E+00    rms(broyden)= 0.32640E+00
  rms(prec ) = 0.33472E+00
  weight for this iteration     100.00

 eigenvalues of (default mixing * dielectric matrix)
  average eigenvalue GAMMA=   0.9481
  2.3962  0.9871  0.9871  1.1684  0.8378  0.6830  0.4810  0.4963  0.4963

 Free energy of the ion-electron system (eV)
  ---------------------------------------------------
  alpha Z        PSCENC =         6.94300477
  Ewald energy   TEWEN  =      2420.26217003
  -Hartree energ DENC   =     -3991.09524113
  -exchange      EXHF   =         0.00000000
  -V(xc)+E(xc)   XCENC  =       128.64499087
  PAW double counting   =      2392.28952972    -2402.65444740
  entropy T*S    EENTRO =        -0.00000000
  eigenvalues    EBANDS =      -435.85197199
  atomic energy  EATOM  =      1843.60931939
  Solvation  Ecorr_sol  =         0.00000000
  ---------------------------------------------------
  free energy    TOTEN  =       -37.85264574 eV

  energy without entropy =      -37.85264574  energy(sigma->0) =      -37.85264574


--------------------------------------------------------------------------------------------------------




--------------------------------------- Iteration      1(  15)  ---------------------------------------


    POTLOK:  cpu time    0.7539: real time    0.7599
    SETDIJ:  cpu time    0.0118: real time    0.0118
    EDDIAG:  cpu time    0.5541: real time    0.5562
  RMM-DIIS:  cpu time    0.6346: real time    0.6378
    ORTHCH:  cpu time    0.0106: real time    0.0107
       DOS:  cpu time    0.0002: real time    0.0002
    CHARGE:  cpu time    0.1007: real time    0.1012
    MIXING:  cpu time    0.0289: real time    0.0291
    --------------------------------------------
      LOOP:  cpu time    2.0947: real time    2.1069

 eigenvalue-minimisations  :   105
 total energy-change (2. order) :-0.4999210E+00  (-0.7347596E-02)
 number of electron      29.0000003 magnetization       3.5173928
 augmentation part        2.6925345 magnetization       2.7021119

 DIPCOR: dipole corrections for dipol
 direction  3 min pos   269,
 dipolmoment           0.000000      0.000000     -0.258818 electrons x Angstroem
 Tr[quadrupol]      -600.327014

 energy correction for charged system         0.000000 eV
 dipol+quadrupol energy correction           -0.003484 eV
 added-field ion interaction          5.663870 eV  (added to PSCEN)


 Broyden mixing:
  rms(total) = 0.64985E+00    rms(broyden)= 0.64778E+00
  rms(prec ) = 0.66467E+00
  weight for this iteration     100.00

 eigenvalues of (default mixing * dielectric matrix)
  average eigenvalue GAMMA=   0.9419
  2.4694  1.4360  0.9673  0.9673  0.8079  0.8079  0.5342  0.5342  0.4476  0.4476

 Free energy of the ion-electron system (eV)
  ---------------------------------------------------
  alpha Z        PSCENC =         7.61648196
  Ewald energy   TEWEN  =      2420.26217003
  -Hartree energ DENC   =     -3991.36854422
  -exchange      EXHF   =         0.00000000
  -V(xc)+E(xc)   XCENC  =       128.27349694
  PAW double counting   =      2394.09234781    -2404.44765528
  entropy T*S    EENTRO =        -0.00000000
  eigenvalues    EBANDS =      -436.39018341
  atomic energy  EATOM  =      1843.60931939
  Solvation  Ecorr_sol  =         0.00000000
  ---------------------------------------------------
  free energy    TOTEN  =       -38.35256678 eV

  energy without entropy =      -38.35256678  energy(sigma->0) =      -38.35256678


--------------------------------------------------------------------------------------------------------




--------------------------------------- Iteration      1(  16)  ---------------------------------------


    POTLOK:  cpu time    0.7419: real time    0.7462
    SETDIJ:  cpu time    0.0125: real time    0.0125
    EDDIAG:  cpu time    0.1697: real time    0.1705
  RMM-DIIS:  cpu time    0.6388: real time    0.6421
    ORTHCH:  cpu time    0.0107: real time    0.0108
       DOS:  cpu time    0.0002: real time    0.0002
    CHARGE:  cpu time    0.0968: real time    0.0973
    MIXING:  cpu time    0.0261: real time    0.0263
    --------------------------------------------
      LOOP:  cpu time    1.6966: real time    1.7059

 eigenvalue-minimisations  :   107
 total energy-change (2. order) :-0.2903741E+00  (-0.7526414E-02)
 number of electron      29.0000003 magnetization       2.4154244
 augmentation part        2.6914188 magnetization       1.6026958

 DIPCOR: dipole corrections for dipol
 direction  3 min pos   269,
 dipolmoment           0.000000      0.000000     -0.292548 electrons x Angstroem
 Tr[quadrupol]      -600.764690

 energy correction for charged system         0.000000 eV
 dipol+quadrupol energy correction           -0.004451 eV
 added-field ion interaction          6.401991 eV  (added to PSCEN)


 Broyden mixing:
  rms(total) = 0.53223E+00    rms(broyden)= 0.53218E+00
  rms(prec ) = 0.54657E+00
  weight for this iteration     100.00

 eigenvalues of (default mixing * dielectric matrix)
  average eigenvalue GAMMA=   1.1476
  3.6489  2.1639  0.9817  0.9817  1.0256  1.0256  0.6601  0.6601  0.5344  0.4710
  0.4710

 Free energy of the ion-electron system (eV)
  ---------------------------------------------------
  alpha Z        PSCENC =         8.35363566
  Ewald energy   TEWEN  =      2420.26217003
  -Hartree energ DENC   =     -3991.20545047
  -exchange      EXHF   =         0.00000000
  -V(xc)+E(xc)   XCENC  =       127.99402482
  PAW double counting   =      2387.45929854    -2397.80528510
  entropy T*S    EENTRO =        -0.00000000
  eigenvalues    EBANDS =      -437.31065375
  atomic energy  EATOM  =      1843.60931939
  Solvation  Ecorr_sol  =         0.00000000
  ---------------------------------------------------
  free energy    TOTEN  =       -38.64294089 eV

  energy without entropy =      -38.64294089  energy(sigma->0) =      -38.64294089


--------------------------------------------------------------------------------------------------------




--------------------------------------- Iteration      1(  17)  ---------------------------------------


    POTLOK:  cpu time    0.7492: real time    0.7541
    SETDIJ:  cpu time    0.0127: real time    0.0128
    EDDIAG:  cpu time    0.1672: real time    0.1679
  RMM-DIIS:  cpu time    0.7486: real time    0.7523
    ORTHCH:  cpu time    0.0112: real time    0.0112
       DOS:  cpu time    0.0002: real time    0.0002
    CHARGE:  cpu time    0.0967: real time    0.0972
    MIXING:  cpu time    0.0277: real time    0.0278
    --------------------------------------------
      LOOP:  cpu time    1.8134: real time    1.8236

 eigenvalue-minimisations  :   108
 total energy-change (2. order) :-0.1156510E+01  (-0.4315116E-01)
 number of electron      29.0000001 magnetization       2.1424471
 augmentation part        2.6770300 magnetization       1.3467777

 DIPCOR: dipole corrections for dipol
 direction  3 min pos   269,
 dipolmoment           0.000000      0.000000     -0.384867 electrons x Angstroem
 Tr[quadrupol]      -601.903954

 energy correction for charged system         0.000000 eV
 dipol+quadrupol energy correction           -0.007703 eV
 added-field ion interaction          8.422280 eV  (added to PSCEN)


 Broyden mixing:
  rms(total) = 0.75255E+00    rms(broyden)= 0.75000E+00
  rms(prec ) = 0.76975E+00
  weight for this iteration     100.00

 eigenvalues of (default mixing * dielectric matrix)
  average eigenvalue GAMMA=   1.1924
  4.7465  2.2542  0.9533  0.9533  1.0313  1.0313  0.7903  0.4744  0.4744  0.6139
  0.5294  0.4559

 Free energy of the ion-electron system (eV)
  ---------------------------------------------------
  alpha Z        PSCENC =        10.37067243
  Ewald energy   TEWEN  =      2420.26217003
  -Hartree energ DENC   =     -3990.35751955
  -exchange      EXHF   =         0.00000000
  -V(xc)+E(xc)   XCENC  =       127.07552683
  PAW double counting   =      2371.74215360    -2382.07331188
  entropy T*S    EENTRO =        -0.00000000
  eigenvalues    EBANDS =      -440.42846126
  atomic energy  EATOM  =      1843.60931939
  Solvation  Ecorr_sol  =         0.00000000
  ---------------------------------------------------
  free energy    TOTEN  =       -39.79945042 eV

  energy without entropy =      -39.79945042  energy(sigma->0) =      -39.79945042


--------------------------------------------------------------------------------------------------------




--------------------------------------- Iteration      1(  18)  ---------------------------------------


    POTLOK:  cpu time    0.7388: real time    0.7442
    SETDIJ:  cpu time    0.0129: real time    0.0130
    EDDIAG:  cpu time    0.1653: real time    0.1661
  RMM-DIIS:  cpu time    0.7269: real time    0.7307
    ORTHCH:  cpu time    0.0105: real time    0.0106
       DOS:  cpu time    0.0001: real time    0.0001
    CHARGE:  cpu time    0.1001: real time    0.1007
    MIXING:  cpu time    0.0296: real time    0.0298
    --------------------------------------------
      LOOP:  cpu time    1.7843: real time    1.7951

 eigenvalue-minimisations  :   115
 total energy-change (2. order) :-0.1440523E+00  (-0.7838586E-02)
 number of electron      29.0000001 magnetization       1.8075799
 augmentation part        2.6771581 magnetization       1.0165307

 DIPCOR: dipole corrections for dipol
 direction  3 min pos   269,
 dipolmoment           0.000000      0.000000     -0.398903 electrons x Angstroem
 Tr[quadrupol]      -601.941730

 energy correction for charged system         0.000000 eV
 dipol+quadrupol energy correction           -0.008275 eV
 added-field ion interaction          8.729435 eV  (added to PSCEN)


 Broyden mixing:
  rms(total) = 0.68646E+00    rms(broyden)= 0.68635E+00
  rms(prec ) = 0.70497E+00
  weight for this iteration     100.00

 eigenvalues of (default mixing * dielectric matrix)
  average eigenvalue GAMMA=   1.3405
  6.4970  2.3100  1.2941  1.2941  0.8889  0.8889  0.7450  0.7450  0.4789  0.4789
  0.7310  0.5375  0.5375

 Free energy of the ion-electron system (eV)
  ---------------------------------------------------
  alpha Z        PSCENC =        10.67725488
  Ewald energy   TEWEN  =      2420.26217003
  -Hartree energ DENC   =     -3990.23188815
  -exchange      EXHF   =         0.00000000
  -V(xc)+E(xc)   XCENC  =       126.88810384
  PAW double counting   =      2370.42369166    -2380.76313215
  entropy T*S    EENTRO =        -0.00000000
  eigenvalues    EBANDS =      -440.80902218
  atomic energy  EATOM  =      1843.60931939
  Solvation  Ecorr_sol  =         0.00000000
  ---------------------------------------------------
  free energy    TOTEN  =       -39.94350268 eV

  energy without entropy =      -39.94350268  energy(sigma->0) =      -39.94350268


--------------------------------------------------------------------------------------------------------




--------------------------------------- Iteration      1(  19)  ---------------------------------------


    POTLOK:  cpu time    0.7390: real time    0.7442
    SETDIJ:  cpu time    0.0128: real time    0.0129
    EDDIAG:  cpu time    0.1669: real time    0.1677
  RMM-DIIS:  cpu time    0.6608: real time    0.6641
    ORTHCH:  cpu time    0.0106: real time    0.0107
       DOS:  cpu time    0.0002: real time    0.0002
    CHARGE:  cpu time    0.0992: real time    0.0997
    MIXING:  cpu time    0.0279: real time    0.0280
    --------------------------------------------
      LOOP:  cpu time    1.7174: real time    1.7274

 eigenvalue-minimisations  :   109
 total energy-change (2. order) :-0.1398428E+00  (-0.1445868E-01)
 number of electron      29.0000002 magnetization       1.6963268
 augmentation part        2.6908261 magnetization       0.9024546

 DIPCOR: dipole corrections for dipol
 direction  3 min pos   269,
 dipolmoment           0.000000      0.000000     -0.411065 electrons x Angstroem
 Tr[quadrupol]      -601.833526

 energy correction for charged system         0.000000 eV
 dipol+quadrupol energy correction           -0.008787 eV
 added-field ion interaction          8.995576 eV  (added to PSCEN)


 Broyden mixing:
  rms(total) = 0.41692E+00    rms(broyden)= 0.41668E+00
  rms(prec ) = 0.42683E+00
  weight for this iteration     100.00

 eigenvalues of (default mixing * dielectric matrix)
  average eigenvalue GAMMA=   1.3931
  7.8320  2.2608  1.2252  1.2252  0.8828  0.8828  0.9422  0.9422  0.4757  0.4757
  0.6757  0.5158  0.5839  0.5839

 Free energy of the ion-electron system (eV)
  ---------------------------------------------------
  alpha Z        PSCENC =        10.94288389
  Ewald energy   TEWEN  =      2420.26217003
  -Hartree energ DENC   =     -3989.12340170
  -exchange      EXHF   =         0.00000000
  -V(xc)+E(xc)   XCENC  =       126.61140780
  PAW double counting   =      2366.72380889    -2377.06435991
  entropy T*S    EENTRO =        -0.00000000
  eigenvalues    EBANDS =      -442.04517390
  atomic energy  EATOM  =      1843.60931939
  Solvation  Ecorr_sol  =         0.00000000
  ---------------------------------------------------
  free energy    TOTEN  =       -40.08334551 eV

  energy without entropy =      -40.08334551  energy(sigma->0) =      -40.08334551


--------------------------------------------------------------------------------------------------------




--------------------------------------- Iteration      1(  20)  ---------------------------------------


    POTLOK:  cpu time    0.7423: real time    0.7464
    SETDIJ:  cpu time    0.0131: real time    0.0131
    EDDIAG:  cpu time    0.1658: real time    0.1666
  RMM-DIIS:  cpu time    0.7227: real time    0.7261
    ORTHCH:  cpu time    0.0110: real time    0.0110
       DOS:  cpu time    0.0002: real time    0.0002
    CHARGE:  cpu time    0.0983: real time    0.0988
    MIXING:  cpu time    0.0286: real time    0.0288
    --------------------------------------------
      LOOP:  cpu time    1.7820: real time    1.7909

 eigenvalue-minimisations  :   119
 total energy-change (2. order) :-0.1261540E+00  (-0.1971583E-02)
 number of electron      29.0000003 magnetization       1.5894029
 augmentation part        2.6947309 magnetization       0.7920807

 DIPCOR: dipole corrections for dipol
 direction  3 min pos   269,
 dipolmoment           0.000000      0.000000     -0.419071 electrons x Angstroem
 Tr[quadrupol]      -601.916972

 energy correction for charged system         0.000000 eV
 dipol+quadrupol energy correction           -0.009133 eV
 added-field ion interaction          9.170785 eV  (added to PSCEN)


 Broyden mixing:
  rms(total) = 0.33463E+00    rms(broyden)= 0.33216E+00
  rms(prec ) = 0.34055E+00
  weight for this iteration     100.00

 eigenvalues of (default mixing * dielectric matrix)
  average eigenvalue GAMMA=   1.4273
  8.8272  2.2565  1.0744  1.0744  0.8415  0.8415  1.1795  1.1795  0.4739  0.4739
  0.7176  0.7176  0.6617  0.5454  0.5454

 Free energy of the ion-electron system (eV)
  ---------------------------------------------------
  alpha Z        PSCENC =        11.11774732
  Ewald energy   TEWEN  =      2420.26217003
  -Hartree energ DENC   =     -3988.86752228
  -exchange      EXHF   =         0.00000000
  -V(xc)+E(xc)   XCENC  =       126.48419674
  PAW double counting   =      2367.74306237    -2378.08211532
  entropy T*S    EENTRO =        -0.00000000
  eigenvalues    EBANDS =      -442.47635777
  atomic energy  EATOM  =      1843.60931939
  Solvation  Ecorr_sol  =         0.00000000
  ---------------------------------------------------
  free energy    TOTEN  =       -40.20949952 eV

  energy without entropy =      -40.20949952  energy(sigma->0) =      -40.20949952


--------------------------------------------------------------------------------------------------------




--------------------------------------- Iteration      1(  21)  ---------------------------------------


    POTLOK:  cpu time    0.7578: real time    0.7627
    SETDIJ:  cpu time    0.0111: real time    0.0111
    EDDIAG:  cpu time    0.1651: real time    0.1658
  RMM-DIIS:  cpu time    0.6652: real time    0.6685
    ORTHCH:  cpu time    0.0108: real time    0.0108
       DOS:  cpu time    0.0001: real time    0.0001
    CHARGE:  cpu time    0.0988: real time    0.0993
    MIXING:  cpu time    0.0311: real time    0.0312
    --------------------------------------------
      LOOP:  cpu time    1.7400: real time    1.7496

 eigenvalue-minimisations  :   112
 total energy-change (2. order) :-0.1297478E+00  (-0.2052620E-02)
 number of electron      29.0000001 magnetization       1.4760783
 augmentation part        2.6819716 magnetization       0.6896660

 DIPCOR: dipole corrections for dipol
 direction  3 min pos   269,
 dipolmoment           0.000000      0.000000     -0.428633 electrons x Angstroem
 Tr[quadrupol]      -602.043439

 energy correction for charged system         0.000000 eV
 dipol+quadrupol energy correction           -0.009554 eV
 added-field ion interaction          9.380032 eV  (added to PSCEN)


 Broyden mixing:
  rms(total) = 0.57168E+00    rms(broyden)= 0.57018E+00
  rms(prec ) = 0.58500E+00
  weight for this iteration     100.00

 eigenvalues of (default mixing * dielectric matrix)
  average eigenvalue GAMMA=   1.4451
  9.5270  2.2836  1.3263  1.3263  0.8666  0.8666  1.1698  1.1698  0.4749  0.4749
  0.7000  0.7000  0.6638  0.6638  0.5278  0.3800

 Free energy of the ion-electron system (eV)
  ---------------------------------------------------
  alpha Z        PSCENC =        11.32657271
  Ewald energy   TEWEN  =      2420.26217003
  -Hartree energ DENC   =     -3988.56536015
  -exchange      EXHF   =         0.00000000
  -V(xc)+E(xc)   XCENC  =       126.37623189
  PAW double counting   =      2367.02926486    -2377.36970016
  entropy T*S    EENTRO =        -0.00000000
  eigenvalues    EBANDS =      -443.00774585
[...]
  ---------------------------------------------------
  alpha Z        PSCENC =        11.23685276
  Ewald energy   TEWEN  =      2420.26217003
  -Hartree energ DENC   =     -3986.91769214
  -exchange      EXHF   =         0.00000000
  -V(xc)+E(xc)   XCENC  =       126.17777277
  PAW double counting   =      2366.20960939    -2376.55169255
  entropy T*S    EENTRO =        -0.00037834
  eigenvalues    EBANDS =      -444.51410990
  atomic energy  EATOM  =      1843.60931939
  Solvation  Ecorr_sol  =         0.00000000
  ---------------------------------------------------
  free energy    TOTEN  =       -40.48814860 eV

  energy without entropy =      -40.48777026  energy(sigma->0) =      -40.48795943


--------------------------------------------------------------------------------------------------------




--------------------------------------- Iteration      1(  68)  ---------------------------------------


    POTLOK:  cpu time    0.7379: real time    0.7420
    SETDIJ:  cpu time    0.0151: real time    0.0151
    EDDIAG:  cpu time    0.1648: real time    0.1656
  RMM-DIIS:  cpu time    0.4223: real time    0.4245
    ORTHCH:  cpu time    0.0100: real time    0.0101
       DOS:  cpu time    0.0002: real time    0.0002
    CHARGE:  cpu time    0.0960: real time    0.0965
    MIXING:  cpu time    0.0803: real time    0.0807
    --------------------------------------------
      LOOP:  cpu time    1.5268: real time    1.5346

 eigenvalue-minimisations  :    65
 total energy-change (2. order) :-0.1023753E-04  (-0.6165607E-07)
 number of electron      29.0000002 magnetization       0.9999475
 augmentation part        2.6871053 magnetization       0.2035220

 DIPCOR: dipole corrections for dipol
 direction  3 min pos   269,
 dipolmoment           0.000000      0.000000     -0.424699 electrons x Angstroem
 Tr[quadrupol]      -602.032045

 energy correction for charged system         0.000000 eV
 dipol+quadrupol energy correction           -0.009380 eV
 added-field ion interaction          9.293939 eV  (added to PSCEN)


 Broyden mixing:
  rms(total) = 0.49370E-03    rms(broyden)= 0.45880E-03
  rms(prec ) = 0.46768E-03
  weight for this iteration     100.00

 eigenvalues of (default mixing * dielectric matrix)
  average eigenvalue GAMMA=   1.7326
 12.3691  8.8603  8.8603  4.5485  4.3322  2.7547  2.7547  2.6575  0.9974  2.3042
  1.6905  1.6905  1.4271  1.4271  0.7840  0.7840  0.1310  1.0358  1.0358  0.0307
  0.0209  0.8021  0.8021  0.8913  0.8913  0.8056  0.8056  0.2190  0.5599  0.5599
  0.5347  0.5347  0.7242  0.7242  0.4878  0.4878  0.6338  0.6338  0.5499  0.5499
  0.6098  0.6098  0.5894

 Free energy of the ion-electron system (eV)
  ---------------------------------------------------
  alpha Z        PSCENC =        11.24065415
  Ewald energy   TEWEN  =      2420.26217003
  -Hartree energ DENC   =     -3986.92003123
  -exchange      EXHF   =         0.00000000
  -V(xc)+E(xc)   XCENC  =       126.17775503
  PAW double counting   =      2366.20599540    -2376.54807027
  entropy T*S    EENTRO =        -0.00037467
  eigenvalues    EBANDS =      -444.51557667
  atomic energy  EATOM  =      1843.60931939
  Solvation  Ecorr_sol  =         0.00000000
  ---------------------------------------------------
  free energy    TOTEN  =       -40.48815884 eV

  energy without entropy =      -40.48778417  energy(sigma->0) =      -40.48797150


--------------------------------------------------------------------------------------------------------




--------------------------------------- Iteration      1(  69)  ---------------------------------------


    POTLOK:  cpu time    0.7400: real time    0.7441
    SETDIJ:  cpu time    0.0134: real time    0.0134
    EDDIAG:  cpu time    0.1633: real time    0.1641
  RMM-DIIS:  cpu time    0.4297: real time    0.4319
    ORTHCH:  cpu time    0.0101: real time    0.0102
       DOS:  cpu time    0.0003: real time    0.0003
    CHARGE:  cpu time    0.0973: real time    0.0978
    MIXING:  cpu time    0.0872: real time    0.0876
    --------------------------------------------
      LOOP:  cpu time    1.5413: real time    1.5494

 eigenvalue-minimisations  :    62
 total energy-change (2. order) :-0.2830487E-04  (-0.3909050E-07)
 number of electron      29.0000002 magnetization       0.9998714
 augmentation part        2.6871123 magnetization       0.2034384

 DIPCOR: dipole corrections for dipol
 direction  3 min pos   269,
 dipolmoment           0.000000      0.000000     -0.424807 electrons x Angstroem
 Tr[quadrupol]      -602.032954

 energy correction for charged system         0.000000 eV
 dipol+quadrupol energy correction           -0.009385 eV
 added-field ion interaction          9.296295 eV  (added to PSCEN)


 Broyden mixing:
  rms(total) = 0.14175E-02    rms(broyden)= 0.14139E-02
  rms(prec ) = 0.14511E-02
  weight for this iteration     100.00

 eigenvalues of (default mixing * dielectric matrix)
  average eigenvalue GAMMA=   1.8569
 15.0465 12.0987  6.4323  6.4323  4.5960  1.5424  2.6535  2.6535  2.5561  2.5561
  1.7640  1.6324  1.4262  1.4262  0.8732  0.8732  1.1139  1.1139  0.0113  0.0113
  0.2309  0.2309  0.8774  0.8774  0.8388  0.8388  0.5584  0.5584  0.7951  0.7951
  0.4963  0.4963  0.5597  0.5597  0.7304  0.6992  0.6992  0.5530  0.5530  0.5959
  0.5959  0.5484  0.6034  0.5975

 Free energy of the ion-electron system (eV)
  ---------------------------------------------------
  alpha Z        PSCENC =        11.24300569
  Ewald energy   TEWEN  =      2420.26217003
  -Hartree energ DENC   =     -3986.92203299
  -exchange      EXHF   =         0.00000000
  -V(xc)+E(xc)   XCENC  =       126.17773838
  PAW double counting   =      2366.20591173    -2376.54797776
  entropy T*S    EENTRO =        -0.00037403
  eigenvalues    EBANDS =      -444.51594758
  atomic energy  EATOM  =      1843.60931939
  Solvation  Ecorr_sol  =         0.00000000
  ---------------------------------------------------
  free energy    TOTEN  =       -40.48818714 eV

  energy without entropy =      -40.48781311  energy(sigma->0) =      -40.48800013


--------------------------------------------------------------------------------------------------------




--------------------------------------- Iteration      1(  70)  ---------------------------------------


    POTLOK:  cpu time    0.7363: real time    0.7418
    SETDIJ:  cpu time    0.0111: real time    0.0112
    EDDIAG:  cpu time    0.1643: real time    0.1652
  RMM-DIIS:  cpu time    0.4689: real time    0.4714
    ORTHCH:  cpu time    0.0098: real time    0.0098
       DOS:  cpu time    0.0002: real time    0.0002
    --------------------------------------------
      LOOP:  cpu time    1.3906: real time    1.3996

 eigenvalue-minimisations  :    63
 total energy-change (2. order) :-0.2130993E-05  (-0.1196190E-07)
 number of electron      29.0000002 magnetization       0.9998714
 augmentation part        2.6871123 magnetization       0.2034384

 DIPCOR: dipole corrections for dipol
 direction  3 min pos   269,
 dipolmoment           0.000000      0.000000     -0.424893 electrons x Angstroem
 Tr[quadrupol]      -602.033575

 energy correction for charged system         0.000000 eV
 dipol+quadrupol energy correction           -0.009388 eV
 added-field ion interaction          9.298179 eV  (added to PSCEN)


 Free energy of the ion-electron system (eV)
  ---------------------------------------------------
  alpha Z        PSCENC =        11.24488585
  Ewald energy   TEWEN  =      2420.26217003
  -Hartree energ DENC   =     -3986.92357331
  -exchange      EXHF   =         0.00000000
  -V(xc)+E(xc)   XCENC  =       126.17773159
  PAW double counting   =      2366.20569556    -2376.54775149
  entropy T*S    EENTRO =        -0.00037155
  eigenvalues    EBANDS =      -444.51629534
  atomic energy  EATOM  =      1843.60931939
  Solvation  Ecorr_sol  =         0.00000000
  ---------------------------------------------------
  free energy    TOTEN  =       -40.48818927 eV

  energy without entropy =      -40.48781772  energy(sigma->0) =      -40.48800350


--------------------------------------------------------------------------------------------------------




 average (electrostatic) potential at core
  the test charge radii are     0.6991  0.7215  0.5201  0.7167
  (the norm of the test charge is              1.0000)
       1 -62.9967       2 -62.4637       3 -81.8776       4 -81.7185       5 -43.9364
       6 -44.1063       7 -86.7699
 
 
 
 E-fermi :  -7.1979     XC(G=0):  -0.6612     alpha+bet :  0.0502


 spin component 1

 k-point     1 :       0.0000    0.0000    0.0000
  band No.  band energies     occupation 
      1     -31.3477      1.00000
      2     -28.1742      1.00000
      3     -26.1240      1.00000
      4     -19.7282      1.00000
      5     -14.9691      1.00000
      6     -13.7923      1.00000
      7     -13.5053      1.00000
      8     -12.8507      1.00000
      9     -11.8771      1.00000
     10     -11.3342      1.00000
     11     -10.5034      1.00000
     12      -9.6429      1.00000
     13      -8.2921      1.00000
     14      -8.2334      1.00000
     15      -8.0668      1.00000
     16      -2.6090      0.00000
     17      -1.2539      0.00000
     18      -0.3074      0.00000
     19       0.1670      0.00000
     20       0.3812      0.00000
     21       0.6989      0.00000
     22       0.7476      0.00000
     23       0.8263      0.00000
     24       1.2729      0.00000

 spin component 2

 k-point     1 :       0.0000    0.0000    0.0000
  band No.  band energies     occupation 
      1     -31.2678      1.00000
      2     -27.7510      1.00000
      3     -25.5841      1.00000
      4     -19.4366      1.00000
      5     -14.6722      1.00000
      6     -13.7074      1.00000
      7     -13.3905      1.00000
      8     -12.5615      1.00000
      9     -11.4672      1.00000
     10     -11.2077      1.00000
     11     -10.2308      1.00000
     12      -9.5821      1.00000
     13      -8.0148      1.00000
     14      -7.2016      0.95920
     15      -7.1942      0.04080
     16      -2.4859      0.00000
     17      -1.2303      0.00000
     18      -0.3191      0.00000
     19       0.2050      0.00000
     20       0.3920      0.00000
     21       0.7352      0.00000
     22       0.7836      0.00000
     23       0.8064      0.00000
     24       1.3087      0.00000


--------------------------------------------------------------------------------------------------------


 soft charge-density along one line, spin component           1
         0         1         2         3         4         5         6         7         8         9
 total charge-density along one line
 
 soft charge-density along one line, spin component           2
         0         1         2         3         4         5         6         7         8         9
 total charge-density along one line
 
 pseudopotential strength for first ion, spin component:           1
 10.499  13.968   0.000  -0.001   0.000  -0.001   0.003  -0.000
 13.968  18.584   0.000  -0.001   0.000  -0.001   0.004  -0.000
  0.000   0.000  -4.612  -0.000  -0.008   9.025   0.000   0.012
 -0.001  -0.001  -0.000  -4.605   0.000   0.000   9.013  -0.000
  0.000   0.000  -0.008   0.000  -4.602   0.012  -0.000   9.010
 -0.001  -0.001   9.025   0.000   0.012 -19.813  -0.000  -0.017
  0.003   0.004   0.000   9.013  -0.000  -0.000 -19.792   0.001
 -0.000  -0.000   0.012  -0.000   9.010  -0.017   0.001 -19.791
 pseudopotential strength for first ion, spin component:           2
 10.504  13.976   0.000  -0.002   0.000  -0.001   0.005  -0.000
 13.976  18.594   0.000  -0.002   0.000  -0.001   0.007  -0.001
  0.000   0.000  -4.617   0.000  -0.008   9.033  -0.000   0.012
 -0.002  -0.002   0.000  -4.602   0.000  -0.000   9.006  -0.000
  0.000   0.000  -0.008   0.000  -4.608   0.012  -0.000   9.018
 -0.001  -0.001   9.033  -0.000   0.012 -19.824   0.000  -0.017
  0.005   0.007  -0.000   9.006  -0.000   0.000 -19.777   0.000
 -0.000  -0.001   0.012  -0.000   9.018  -0.017   0.000 -19.803
 total augmentation occupancy for first ion, spin component:           1
  8.896  -4.285  -0.012  -0.433   0.009  -0.002  -0.100   0.002
 -4.285   2.257   0.006   0.314  -0.007   0.001   0.065  -0.001
 -0.012   0.006   1.777   0.008   0.357   0.188   0.001   0.065
 -0.433   0.314   0.008   1.655  -0.014   0.001   0.150  -0.003
  0.009  -0.007   0.357  -0.014   1.306   0.065  -0.003   0.103
 -0.002   0.001   0.188   0.001   0.065   0.025   0.000   0.011
 -0.100   0.065   0.001   0.150  -0.003   0.000   0.016  -0.000
  0.002  -0.001   0.065  -0.003   0.103   0.011  -0.000   0.010
 total augmentation occupancy for first ion, spin component:           2
  0.064  -0.048   0.001   0.015  -0.000   0.000   0.003  -0.000
 -0.048   0.028  -0.001  -0.007   0.000  -0.000  -0.002  -0.000
  0.001  -0.001  -0.017   0.001   0.002   0.001   0.000   0.001
  0.015  -0.007   0.001   0.030  -0.001   0.000   0.001  -0.000
 -0.000   0.000   0.002  -0.001  -0.022   0.001  -0.000   0.001
  0.000  -0.000   0.001   0.000   0.001   0.000   0.000   0.000
  0.003  -0.002   0.000   0.001  -0.000   0.000   0.000  -0.000
 -0.000  -0.000   0.001  -0.000   0.001   0.000  -0.000   0.000


------------------------ aborting loop because EDIFF is reached ----------------------------------------


    CHARGE:  cpu time    0.0958: real time    0.0964
    FORLOC:  cpu time    0.0376: real time    0.0377
    FORNL :  cpu time    0.2544: real time    0.2557
    STRESS:  cpu time    0.7687: real time    0.7726
    FORCOR:  cpu time    0.7143: real time    0.7178
    FORHAR:  cpu time    0.0969: real time    0.0973
    MIXING:  cpu time    0.0726: real time    0.0730
    OFIELD:  cpu time    0.0002: real time    0.0002

  FORCE on cell =-STRESS in cart. coord.  units (eV):
  Direction    XX          YY          ZZ          XY          YZ          ZX
  --------------------------------------------------------------------------------------
  Alpha Z     1.95610     1.95610     1.95610
  Ewald    1824.39528  2374.69296 -1778.82634   173.32733  -164.63723   120.16012
  Hartree  2450.44474  2777.60862 -1241.12208    96.13232  -119.84494    93.28034
  E(xc)    -135.37789  -134.31697  -135.10742     0.52355    -0.10998     0.06185
  Local   -4651.31746 -5499.54579  2650.18618  -263.48171   278.19897  -210.36525
  n-local   -97.93522   -99.80138   -95.84379    -3.56098    -0.65811     0.27876
  augment    30.70006    28.89795    30.20409     1.05038     0.95059    -0.50756
  Kinetic   576.52732   548.96168   568.52245    -3.92959     6.32198    -2.87970
  Fock        0.00000     0.00000     0.00000     0.00000     0.00000     0.00000
  -------------------------------------------------------------------------------------
  Total      -0.60707    -1.54683    -0.03082     0.06129     0.22129     0.02856
  in kB      -0.55904    -1.42445    -0.02838     0.05644     0.20378     0.02630
  external pressure =       -0.67 kB  Pullay stress =        0.00 kB


 VOLUME and BASIS-vectors are now :
 -----------------------------------------------------------------------------
  energy-cutoff  :      544.00
  volume of cell :     1739.83
      direct lattice vectors                 reciprocal lattice vectors
     8.315596000  0.000000000  0.000000000     0.120255962 -0.069429620  0.000000000
     4.157788000  7.201520000  0.000000000     0.000000000  0.138859574  0.000000000
     0.000000000  0.000000000 29.052834000     0.000000000  0.000000000  0.034420050

  length of vectors
     8.315596000  8.315593266 29.052834000     0.138859528  0.138859574  0.034420050


 FORCES acting on ions
    electron-ion (+dipol)            ewald-force                    non-local-force                 convergence-correction
 -----------------------------------------------------------------------------------------------
   0.168E+02 -.268E+02 0.713E+01   -.169E+02 0.264E+02 -.690E+01   0.739E-01 0.515E-01 -.419E+01   0.166E-02 0.307E-02 -.138E-02
   0.779E+02 -.117E+03 -.121E+03   -.820E+02 0.124E+03 0.123E+03   0.441E+01 -.740E+01 -.438E+00   0.257E-03 0.787E-03 0.425E-03
   -.129E+03 -.251E+03 0.224E+03   0.151E+03 0.290E+03 -.245E+03   -.225E+02 -.394E+02 0.229E+02   0.573E-03 0.116E-02 -.406E-03
   0.145E+03 0.234E+03 0.241E+03   -.166E+03 -.275E+03 -.262E+03   0.211E+02 0.410E+02 0.224E+02   0.475E-03 0.101E-02 -.345E-03
   -.215E+02 -.668E+02 -.504E+02   0.240E+02 0.716E+02 0.524E+02   -.252E+01 -.502E+01 -.205E+01   0.114E-03 0.228E-03 -.192E-04
   0.728E+02 -.685E+01 -.460E+02   -.783E+02 0.636E+01 0.476E+02   0.553E+01 0.449E+00 -.187E+01   -.159E-03 0.788E-04 0.182E-03
   -.144E+03 0.206E+03 -.275E+03   0.169E+03 -.244E+03 0.292E+03   -.249E+02 0.389E+02 -.165E+02   0.819E-03 -.345E-03 0.111E-02
 -----------------------------------------------------------------------------------------------
   0.187E+02 -.287E+02 -.203E+02   -.284E-13 0.853E-13 0.568E-13   -.187E+02 0.286E+02 0.203E+02   0.374E-02 0.598E-02 -.424E-03
 
 
 POSITION                                       TOTAL-FORCE (eV/Angst)
 -----------------------------------------------------------------------------------
      4.80674      3.63475      9.51072        -0.034033     -0.324000     -3.968919
      4.76326      3.66888     11.03559         0.315413     -0.345673      1.692369
      5.36927      4.63138      8.95624        -0.231863     -0.221987      1.400809
      4.27740      2.61604      8.96832         0.182456      0.464274      1.378717
      5.23211      4.58747     11.41309         0.067648     -0.120683     -0.094828
      3.71868      3.58267     11.37638         0.046678     -0.037554     -0.221084
      5.48295      2.55706     11.51898        -0.346299      0.585622     -0.187063
 -----------------------------------------------------------------------------------
    total drift:                                0.001574      0.000648     -0.000088


--------------------------------------------------------------------------------------------------------



  FREE ENERGIE OF THE ION-ELECTRON SYSTEM (eV)
  ---------------------------------------------------
  free  energy   TOTEN  =       -40.48818927 eV

  energy  without entropy=      -40.48781772  energy(sigma->0) =      -40.48800350
 


--------------------------------------------------------------------------------------------------------


    POTLOK:  cpu time    0.7505: real time    0.7544


--------------------------------------------------------------------------------------------------------


 stress matrix after NEB project (eV)
     -0.60707      0.06129      0.02856
      0.06129     -1.54683      0.22129
      0.02856      0.22129     -0.03082
  FORCES: max atom, RMS     3.982268    1.841390
  FORCE total and by dimension    4.871860    3.968919
  Stress total and by dimension    1.693885    1.546828
     LOOP+:  cpu time  122.0714: real time  123.4487
    4ORBIT:  cpu time    0.0000: real time    0.0000

 total amount of memory used by VASP MPI-rank0   118092. kBytes
=======================================================================

   base      :      30000. kBytes
   nonlr-proj:        867. kBytes
   fftplans  :      22218. kBytes
   grid      :      62586. kBytes
   one-center:         12. kBytes
   wavefun   :       2409. kBytes
 
  
  
 General timing and accounting informations for this job:
 ========================================================
  
                  Total CPU time used (sec):      124.128
                            User time (sec):      121.530
                          System time (sec):        2.598
                         Elapsed time (sec):      126.182
  
                   Maximum memory used (kb):      264804.
                   Average memory used (kb):           0.
  
                          Minor page faults:       623938
                          Major page faults:           15
                 Voluntary context switches:         1665
