 vasp.5.4.4.18Apr17-6-g9f103f2a35 (build Sep 01 2024 22:12:51) complex          
  
 executed on             LinuxIFC date 2024.09.23  15:56:12
 running on   16 total cores
 distrk:  each k-point on   16 cores,    1 groups
 distr:  one band on NCORES_PER_BAND=   4 cores,    4 groups


--------------------------------------------------------------------------------------------------------


 INCAR:
 POTCAR:    PAW_PBE C 08Apr2002                   
 POTCAR:    PAW_PBE O 08Apr2002                   
 POTCAR:    PAW_PBE H 15Jun2001                   
 POTCAR:    PAW_PBE C 08Apr2002                   
   SHA256 =  253f7b50bb8d59471dbedb8285d89021f4a42ed1a2c5d38a03a736e69125dd95 C/
   COPYR  = (c) Copyright 08Apr2002 Georg Kresse                                
   COPYR  = This file is part of the software VASP. Any use, copying, and all ot
   COPYR  = If you do not have a valid VASP license, you may not use, copy or di
   VRHFIN =C: s2p2                                                              
   LEXCH  = PE                                                                  
   EATOM  =   147.1560 eV,   10.8157 Ry                                         
                                                                                
   TITEL  = PAW_PBE C 08Apr2002                                                 
   LULTRA =        F    use ultrasoft PP ?                                      
   IUNSCR =        1    unscreen: 0-lin 1-nonlin 2-no                           
   RPACOR =    1.200    partial core radius                                     
   POMASS =   12.011; ZVAL   =    4.000    mass and valenz                      
   RCORE  =    1.500    outmost cutoff radius                                   
   RWIGS  =    1.630; RWIGS  =    0.863    wigner-seitz radius (au A)           
   ENMAX  =  400.000; ENMIN  =  300.000 eV                                      
   ICORE  =        2    local potential                                         
   LCOR   =        T    correct aug charges                                     
   LPAW   =        T    paw PP                                                  
   EAUG   =  644.873                                                            
   DEXC   =    0.000                                                            
   RMAX   =    1.529    core radius for proj-oper                               
   RAUG   =    1.300    factor for augmentation sphere                          
   RDEP   =    1.501    radius for radial grids                                 
   RDEPT  =    1.300    core radius for aug-charge                              
                                                                                
   Atomic configuration                                                         
    4 entries                                                                   
     n  l   j            E        occ.                                          
     1  0  0.50      -273.3789   2.0000                                         
     2  0  0.50       -13.7508   2.0000                                         
     2  1  0.50        -5.2854   2.0000                                         
     3  2  1.50        -5.4423   0.0000                                         
   Description                                                                  
     l       E           TYP  RCUT    TYP  RCUT                                 
     0    -13.7508458     23  1.200                                             
     0     -8.2022199     23  1.200                                             
     1     -5.2854383     23  1.500                                             
     1     34.0145650     23  1.500                                             
     2     -5.4423304      7  1.500                                             
  local pseudopotential read in
  partial core-charges read in
  partial kinetic energy density read in
  atomic valenz-charges read in
  non local Contribution for L=           0  read in
    real space projection operators read in
  non local Contribution for L=           0  read in
    real space projection operators read in
  non local Contribution for L=           1  read in
    real space projection operators read in
  non local Contribution for L=           1  read in
    real space projection operators read in
    PAW grid and wavefunctions read in
 
   number of l-projection  operators is LMAX  =           4
   number of lm-projection operators is LMMAX =           8
 
 POTCAR:    PAW_PBE O 08Apr2002                   
   SHA256 =  818f92134a0a090dccd8ba1447fa70422a3b330e708bb4f08108d8ae51209ddf O/
   COPYR  = (c) Copyright 08Apr2002 Georg Kresse                                
   COPYR  = This file is part of the software VASP. Any use, copying, and all ot
   COPYR  = If you do not have a valid VASP license, you may not use, copy or di
   VRHFIN =O: s2p4                                                              
   LEXCH  = PE                                                                  
   EATOM  =   432.3788 eV,   31.7789 Ry                                         
                                                                                
   TITEL  = PAW_PBE O 08Apr2002                                                 
   LULTRA =        F    use ultrasoft PP ?                                      
   IUNSCR =        1    unscreen: 0-lin 1-nonlin 2-no                           
   RPACOR =    1.200    partial core radius                                     
   POMASS =   16.000; ZVAL   =    6.000    mass and valenz                      
   RCORE  =    1.520    outmost cutoff radius                                   
   RWIGS  =    1.550; RWIGS  =    0.820    wigner-seitz radius (au A)           
   ENMAX  =  400.000; ENMIN  =  300.000 eV                                      
   ICORE  =        2    local potential                                         
   LCOR   =        T    correct aug charges                                     
   LPAW   =        T    paw PP                                                  
   EAUG   =  605.392                                                            
   DEXC   =    0.000                                                            
   RMAX   =    1.553    core radius for proj-oper                               
   RAUG   =    1.300    factor for augmentation sphere                          
   RDEP   =    1.550    radius for radial grids                                 
   RDEPT  =    1.329    core radius for aug-charge                              
                                                                                
   Atomic configuration                                                         
    4 entries                                                                   
     n  l   j            E        occ.                                          
     1  0  0.50      -514.6923   2.0000                                         
     2  0  0.50       -23.9615   2.0000                                         
     2  1  0.50        -9.0305   4.0000                                         
     3  2  1.50        -9.5241   0.0000                                         
   Description                                                                  
     l       E           TYP  RCUT    TYP  RCUT                                 
     0    -23.9615318     23  1.200                                             
     0     -9.5240782     23  1.200                                             
     1     -9.0304911     23  1.520                                             
     1      8.1634956     23  1.520                                             
     2     -9.5240782      7  1.500                                             
  local pseudopotential read in
  partial core-charges read in
  partial kinetic energy density read in
  kinetic energy density of atom read in
  atomic valenz-charges read in
  non local Contribution for L=           0  read in
    real space projection operators read in
  non local Contribution for L=           0  read in
    real space projection operators read in
  non local Contribution for L=           1  read in
    real space projection operators read in
  non local Contribution for L=           1  read in
    real space projection operators read in
    PAW grid and wavefunctions read in
 
   number of l-projection  operators is LMAX  =           4
   number of lm-projection operators is LMMAX =           8
 
 POTCAR:    PAW_PBE H 15Jun2001                   
   SHA256 =  030f79b5d3ab3cf0e668861823c8fb652ff669f3e15e46930bd03bfd63a607b6 H/
   COPYR  = (c) Copyright 15Jun2001 Georg Kresse                                
   COPYR  = This file is part of the software VASP. Any use, copying, and all ot
   COPYR  = If you do not have a valid VASP license, you may not use, copy or di
   VRHFIN =H: ultrasoft test                                                    
   LEXCH  = PE                                                                  
   EATOM  =    12.4884 eV,    0.9179 Ry                                         
                                                                                
   TITEL  = PAW_PBE H 15Jun2001                                                 
   LULTRA =        F    use ultrasoft PP ?                                      
   IUNSCR =        0    unscreen: 0-lin 1-nonlin 2-no                           
   RPACOR =    0.000    partial core radius                                     
   POMASS =    1.000; ZVAL   =    1.000    mass and valenz                      
   RCORE  =    1.100    outmost cutoff radius                                   
   RWIGS  =    0.700; RWIGS  =    0.370    wigner-seitz radius (au A)           
   ENMAX  =  250.000; ENMIN  =  200.000 eV                                      
   RCLOC  =    0.701    cutoff for local pot                                    
   LCOR   =        T    correct aug charges                                     
   LPAW   =        T    paw PP                                                  
   EAUG   =  400.000                                                            
   RMAX   =    1.123    core radius for proj-oper                               
   RAUG   =    1.200    factor for augmentation sphere                          
   RDEP   =    1.112    radius for radial grids                                 
   RDEPT  =    0.926    core radius for aug-charge                              
                                                                                
   Atomic configuration                                                         
    2 entries                                                                   
     n  l   j            E        occ.                                          
     1  0  0.50        -6.4927   1.0000                                         
     2  1  0.50        -3.4015   0.0000                                         
   Description                                                                  
     l       E           TYP  RCUT    TYP  RCUT                                 
     0     -6.4927494     23  1.100                                             
     0      6.8029130     23  1.100                                             
     1     -4.0817478     23  1.100                                             
  local pseudopotential read in
  atomic valenz-charges read in
  non local Contribution for L=           0  read in
    real space projection operators read in
  non local Contribution for L=           0  read in
    real space projection operators read in
  non local Contribution for L=           1  read in
    real space projection operators read in
    PAW grid and wavefunctions read in
 
   number of l-projection  operators is LMAX  =           3
   number of lm-projection operators is LMMAX =           5
 

 ----------------------------------------------------------------------------- 
|                                                                             |
|  ADVICE TO THIS USER RUNNING 'VASP/VAMP'   (HEAR YOUR MASTER'S VOICE ...):  |
|                                                                             |
|      You have a (more or less) 'small supercell' and for smaller cells      |
|      it is recommended  to use the reciprocal-space projection scheme!      |
|      The real space optimization is not  efficient for small cells and it   |
|      is also less accurate ...                                              |
|      Therefore set LREAL=.FALSE. in the  INCAR file                         |
|                                                                             |
 ----------------------------------------------------------------------------- 

 Optimization of the real space projectors (new method)

 maximal supplied QI-value         = 25.13
 optimisation between [QCUT,QGAM] = [ 11.81, 23.88] = [ 39.08,159.64] Ry 
 Optimized for a Real-space Cutoff    1.18 Angstroem

   l    n(q)    QCUT    max X(q) W(low)/X(q) W(high)/X(q)  e(spline) 
   0      8    11.813   115.676    0.10E-03    0.13E-03    0.36E-06
   0      8    11.813    87.132    0.10E-03    0.13E-03    0.36E-06
   1      8    11.813     4.429    0.14E-03    0.13E-04    0.22E-06
   1      8    11.813     2.733    0.11E-03    0.10E-04    0.18E-06
 Optimization of the real space projectors (new method)

 maximal supplied QI-value         = 24.76
 optimisation between [QCUT,QGAM] = [ 11.88, 23.77] = [ 39.54,158.16] Ry 
 Optimized for a Real-space Cutoff    1.18 Angstroem

   l    n(q)    QCUT    max X(q) W(low)/X(q) W(high)/X(q)  e(spline) 
   0      8    11.883    20.381    0.77E-04    0.16E-03    0.31E-06
   0      8    11.883    15.268    0.85E-04    0.17E-03    0.34E-06
   1      8    11.883     5.964    0.17E-03    0.30E-04    0.33E-06
   1      8    11.883     5.382    0.15E-03    0.14E-04    0.29E-06
 Optimization of the real space projectors (new method)

 maximal supplied QI-value         = 34.20
 optimisation between [QCUT,QGAM] = [ 11.63, 23.60] = [ 37.87,155.98] Ry 
 Optimized for a Real-space Cutoff    1.18 Angstroem

   l    n(q)    QCUT    max X(q) W(low)/X(q) W(high)/X(q)  e(spline) 
   0      8    11.629    19.460    0.14E-03    0.39E-03    0.21E-06
   0      8    11.629    12.209    0.12E-03    0.36E-03    0.20E-06
   1      8    11.629     4.655    0.22E-03    0.17E-03    0.23E-06
  PAW_PBE C 08Apr2002                   :
 energy of atom  1       EATOM= -147.1560
 kinetic energy error for atom=    0.0067 (will be added to EATOM!!)
  PAW_PBE O 08Apr2002                   :
 energy of atom  2       EATOM= -432.3788
 kinetic energy error for atom=    0.0196 (will be added to EATOM!!)
  PAW_PBE H 15Jun2001                   :
 energy of atom  3       EATOM=  -12.4884
 kinetic energy error for atom=    0.0009 (will be added to EATOM!!)
 
 
 POSCAR:  C  O  H                                
  positions in cartesian coordinates
  No initial velocities read in
 exchange correlation table for  LEXCH =        8
   RHO(1)=    0.500       N(1)  =     2000
   RHO(2)=  100.500       N(2)  =     4000

 VTST: version 3.2, (02/03/18)

 CHAIN: initializing optimizer
 
 OPT: Using VASP Dynamics algorithm
 CHAIN: Read ICHAIN            0
 
 POSCAR:  C  O  H                                
  positions in cartesian coordinates
  No initial velocities read in
 


--------------------------------------------------------------------------------------------------------


 ion  position               nearest neighbor table
   1  0.330  0.503  0.328-   4 1.28   3 1.28   2 1.33
   2  0.325  0.501  0.374-   5 0.99   1 1.33
   3  0.331  0.641  0.309-   1 1.28
   4  0.334  0.362  0.309-   1 1.28
   5  0.320  0.614  0.386-   2 0.99
 

IMPORTANT INFORMATION: All symmetrisations will be switched off!
NOSYMM: (Re-)initialisation of all symmetry stuff for point group C_1.

 
 
 KPOINTS: K-Point Grid                            

Automatic generation of k-mesh.
Space group operators:
 irot       det(A)        alpha          n_x          n_y          n_z        tau_x        tau_y        tau_z
    1     1.000000     0.000000     1.000000     0.000000     0.000000     0.000000     0.000000     0.000000
 
 Subroutine IBZKPT returns following result:
 ===========================================
 
 Found      1 irreducible k-points:
 
 Following reciprocal coordinates:
            Coordinates               Weight
  0.000000  0.000000  0.000000      1.000000
 
 Following cartesian coordinates:
            Coordinates               Weight
  0.000000  0.000000  0.000000      1.000000
 


--------------------------------------------------------------------------------------------------------




 Dimension of arrays:
   k-points           NKPTS =      1   k-points in BZ     NKDIM =      1   number of bands    NBANDS=     20
   number of dos      NEDOS =    301   number of ions     NIONS =      5
   non local maximal  LDIM  =      4   non local SUM 2l+1 LMDIM =      8
   total plane-waves  NPLWV = 917504
   max r-space proj   IRMAX =   3714   max aug-charges    IRDMAX=   7041
   dimension x,y,z NGX =    64 NGY =   64 NGZ =  224
   dimension x,y,z NGXF=   128 NGYF=  128 NGZF=  448
   support grid    NGXF=   128 NGYF=  128 NGZF=  448
   ions per type =               1   3   1
   NGX,Y,Z   is equivalent  to a cutoff of  12.79, 12.79, 12.82 a.u.
   NGXF,Y,Z  is equivalent  to a cutoff of  25.59, 25.59, 25.64 a.u.

 SYSTEM =  DIPOLE RUNS                             
 POSCAR =   C  O  H                                

 Startparameter for this run:
   NWRITE =      2    write-flag & timer
   PREC   = accura    normal or accurate (medium, high low for compatibility)
   ISTART =      0    job   : 0-new  1-cont  2-samecut
   ICHARG =      2    charge: 1-file 2-atom 10-const
   ISPIN  =      2    spin polarized calculation?
   LNONCOLLINEAR =      F non collinear calculations
   LSORBIT =      F    spin-orbit coupling
   INIWAV =      1    electr: 0-lowe 1-rand  2-diag
   LASPH  =      F    aspherical Exc in radial PAW
   METAGGA=      F    non-selfconsistent MetaGGA calc.

 Electronic Relaxation 1
   ENCUT  =  544.0 eV  39.98 Ry    6.32 a.u.  15.81 15.81 55.25*2*pi/ulx,y,z
   ENINI  =  544.0     initial cutoff
   ENAUG  =  644.9 eV  augmentation charge cutoff
   NELM   =    400;   NELMIN=  2; NELMDL= -5     # of ELM steps 
   EDIFF  = 0.1E-04   stopping-criterion for ELM
   LREAL  =      T    real-space projection
   NLSPLINE    = F    spline interpolate recip. space projectors
   LCOMPAT=      F    compatible to vasp.4.4
   GGA_COMPAT  = T    GGA compatible to vasp.4.4-vasp.4.6
   LMAXPAW     = -100 max onsite density
   LMAXMIX     =    2 max onsite mixed and CHGCAR
   VOSKOWN=      0    Vosko Wilk Nusair interpolation
   ROPT   =   -0.00025  -0.00025  -0.00025
 Ionic relaxation
   EDIFFG = -.1E-01   stopping-criterion for IOM
   NSW    =      0    number of steps for IOM
   NBLOCK =      1;   KBLOCK =      1    inner block; outer block 
   IBRION =     -1    ionic relax: 0-MD 1-quasi-New 2-CG
   NFREE  =      0    steps in history (QN), initial steepest desc. (CG)
   ISIF   =      2    stress and relaxation
   IWAVPR =     10    prediction:  0-non 1-charg 2-wave 3-comb
   ISYM   =      0    0-nonsym 1-usesym 2-fastsym
   LCORR  =      T    Harris-Foulkes like correction to forces

   POTIM  = 0.5000    time-step for ionic-motion
   TEIN   =    0.0    initial temperature
   TEBEG  =    0.0;   TEEND  =   0.0 temperature during run
   SMASS  =  -3.00    Nose mass-parameter (am)
   estimated Nose-frequenzy (Omega)   =  0.10E-29 period in steps =****** mass=  -0.158E-26a.u.
   SCALEE = 1.0000    scale energy and forces
   NPACO  =    256;   APACO  = 16.0  distance and # of slots for P.C.
   PSTRESS=    0.0 pullay stress

  Mass of Ions in am
   POMASS =  12.01 16.00  1.00
  Ionic Valenz
   ZVAL   =   4.00  6.00  1.00
  Atomic Wigner-Seitz radii
   RWIGS  =  -1.00 -1.00 -1.00
  virtual crystal weights 
   VCA    =   1.00  1.00  1.00
   NELECT =      23.0000    total number of electrons
   NUPDOWN=      -1.0000    fix difference up-down

 DOS related values:
   EMIN   =  10.00;   EMAX   =-10.00  energy-range for DOS
   EFERMI =   0.00
   ISMEAR =     0;   SIGMA  =   0.00  broadening in eV -4-tet -1-fermi 0-gaus

 Electronic relaxation 2 (details)
   IALGO  =     68    algorithm
   LDIAG  =      T    sub-space diagonalisation (order eigenvalues)
   LSUBROT=      F    optimize rotation matrix (better conditioning)
   TURBO    =      0    0=normal 1=particle mesh
   IRESTART =      0    0=no restart 2=restart with 2 vectors
   NREBOOT  =      0    no. of reboots
   NMIN     =      0    reboot dimension
   EREF     =   0.00    reference energy to select bands
   IMIX   =      4    mixing-type and parameters
     AMIX     =   0.40;   BMIX     =  1.00
     AMIX_MAG =   1.60;   BMIX_MAG =  1.00
     AMIN     =   0.10
     WC   =   100.;   INIMIX=   1;  MIXPRE=   1;  MAXMIX= -45

 Intra band minimization:
   WEIMIN = 0.0000     energy-eigenvalue tresh-hold
   EBREAK =  0.13E-06  absolut break condition
   DEPER  =   0.30     relativ break condition  

   TIME   =   0.40     timestep for ELM

  volume/ion in A,a.u.               =     347.97      2348.19
  Fermi-wavevector in a.u.,A,eV,Ry     =   0.387093  0.731500  2.038711  0.149841
  Thomas-Fermi vector in A             =   1.326666
 
 Write flags
   LWAVE        =      F    write WAVECAR
   LDOWNSAMPLE  =      F    k-point downsampling of WAVECAR
   LCHARG       =      F    write CHGCAR
   LVTOT        =      F    write LOCPOT, total local potential
   LVHAR        =      F    write LOCPOT, Hartree potential only
   LELF         =      F    write electronic localiz. function (ELF)
   LORBIT       =      0    0 simple, 1 ext, 2 COOP (PROOUT), +10 PAW based schemes


 Dipole corrections
   LMONO  =      F    monopole corrections only (constant potential shift)
   LDIPOL =      T    correct potential (dipole corrections)
   IDIPOL =      3    1-x, 2-y, 3-z, 4-all directions 
   EPSILON=  1.0000000 bulk dielectric constant

 Exchange correlation treatment:
   GGA     =    PE    GGA type
   LEXCH   =     8    internal setting for exchange type
   VOSKOWN=      0    Vosko Wilk Nusair interpolation
   LHFCALC =     F    Hartree Fock is set to
   LHFONE  =     F    Hartree Fock one center treatment
   AEXX    =    0.0000 exact exchange contribution

 Linear response parameters
   LEPSILON=     F    determine dielectric tensor
   LRPA    =     F    only Hartree local field effects (RPA)
   LNABLA  =     F    use nabla operator in PAW spheres
   LVEL    =     F    velocity operator in full k-point grid
   LINTERFAST=   F  fast interpolation
   KINTER  =     0    interpolate to denser k-point grid
   CSHIFT  =0.1000    complex shift for real part using Kramers Kronig
   OMEGAMAX=  -1.0    maximum frequency
   DEG_THRESHOLD= 0.2000000E-02 threshold for treating states as degnerate
   RTIME   =   -0.100 relaxation time in fs
  (WPLASMAI=    0.000 imaginary part of plasma frequency in eV, 0.658/RTIME)
   DFIELD  = 0.0000000 0.0000000 0.0000000 field for delta impulse in time
 
 Orbital magnetization related:
   ORBITALMAG=     F  switch on orbital magnetization
   LCHIMAG   =     F  perturbation theory with respect to B field
   DQ        =  0.001000  dq finite difference perturbation B field
   LLRAUG    =     F  two centre corrections for induced B field



--------------------------------------------------------------------------------------------------------


 Static calculation
 charge density and potential will be updated during run
 spin polarized calculation
 RMM-DIIS sequential band-by-band and
  variant of blocked Davidson during initial phase
 perform sub-space diagonalisation
    before iterative eigenvector-optimisation
 modified Broyden-mixing scheme, WC =      100.0
 initial mixing is a Kerker type mixing with AMIX =  0.4000 and BMIX =      1.0000
 Hartree-type preconditioning will be used
 using additional bands            8
 real space projection scheme for non local part
 use partial core corrections
 calculate Harris-corrections to forces 
   (improved forces if not selfconsistent)
 use gradient corrections 
 use of overlap-Matrix (Vanderbilt PP)
 Gauss-broadening in eV      SIGMA  =   0.00


--------------------------------------------------------------------------------------------------------


  energy-cutoff  :      544.00
  volume of cell :     1739.83
      direct lattice vectors                 reciprocal lattice vectors
     8.315596000  0.000000000  0.000000000     0.120255962 -0.069429620  0.000000000
     4.157788000  7.201520000  0.000000000     0.000000000  0.138859574  0.000000000
     0.000000000  0.000000000 29.052834000     0.000000000  0.000000000  0.034420050

  length of vectors
     8.315596000  8.315593266 29.052834000     0.138859528  0.138859574  0.034420050


 
 k-points in units of 2pi/SCALE and weight: K-Point Grid                            
   0.00000000  0.00000000  0.00000000       1.000
 
 k-points in reciprocal lattice and weights: K-Point Grid                            
   0.00000000  0.00000000  0.00000000       1.000
 
 position of ions in fractional coordinates (direct lattice) 
   0.32997335  0.50279233  0.32782461
   0.32508905  0.50053558  0.37373696
   0.33074528  0.64098190  0.30878371
   0.33365357  0.36245973  0.30896893
   0.31952618  0.61398691  0.38643968
 
 position of ions in cartesian coordinates  (Angst):
   4.83442900  3.62086900  9.52423400
   4.78443000  3.60461700 10.85811800
   5.41541100  4.61604400  8.97104200
   4.28155900  2.61026100  8.97642300
   5.20987800  4.42163900 11.22716800
 


--------------------------------------------------------------------------------------------------------


 k-point  1 :   0.0000 0.0000 0.0000  plane waves:   50139

 maximum and minimum number of plane-waves per node :     12536    12533

 maximum number of plane-waves:     50139
 maximum index in each direction: 
   IXMAX=   15   IYMAX=   15   IZMAX=   55
   IXMIN=  -15   IYMIN=  -15   IZMIN=  -55


 real space projection operators:
  total allocation   :       1028.70 KBytes
  max/ min on nodes  :        260.55        252.88


 parallel 3D FFT for wavefunctions:
    minimum data exchange during FFTs selected (reduces bandwidth)
 parallel 3D FFT for charge:
    minimum data exchange during FFTs selected (reduces bandwidth)


 total amount of memory used by VASP MPI-rank0   113766. kBytes
=======================================================================

   base      :      30000. kBytes
   nonlr-proj:        628. kBytes
   fftplans  :      22218. kBytes
   grid      :      58900. kBytes
   one-center:         12. kBytes
   wavefun   :       2008. kBytes
 
     INWAV:  cpu time    0.0001: real time    0.0003
 Broyden mixing: mesh for mixing (old mesh)
   NGX = 31   NGY = 31   NGZ =111
  (NGX  =128   NGY  =128   NGZ  =448)
  gives a total of 106671 points

 initial charge density was supplied:
 charge density of overlapping atoms calculated
 number of electron      23.0000000 magnetization       5.0000000
 keeping initial charge density in first step


--------------------------------------------------------------------------------------------------------


 Maximum index for non-local projection operator          896
 Maximum index for augmentation-charges          463 (set IRDMAX)


--------------------------------------------------------------------------------------------------------


 First call to EWALD:  gamma=   0.147
 Maximum number of real-space cells 4x 4x 1
 Maximum number of reciprocal cells 2x 2x 6

    FEWALD:  cpu time    0.0015: real time    0.0015


--------------------------------------- Iteration      1(   1)  ---------------------------------------


    POTLOK:  cpu time    0.8108: real time    0.8199
    SETDIJ:  cpu time    0.0126: real time    0.0126
     EDDAV:  cpu time    0.8959: real time    0.9336
       DOS:  cpu time    0.0004: real time    0.0004
    --------------------------------------------
      LOOP:  cpu time    1.7197: real time    1.7665

 eigenvalue-minimisations  :   112
 total energy-change (2. order) : 0.1872788E+03  (-0.6205300E+03)
 number of electron      23.0000000 magnetization       5.0000000
 augmentation part       23.0000000 magnetization       5.0000000

 DIPCOR: dipole corrections for dipol
 direction  3 min pos   269,
 dipolmoment           0.000000      0.000000     -0.000200 electrons x Angstroem
 Tr[quadrupol]      -460.859104

 energy correction for charged system         0.000000 eV
 dipol+quadrupol energy correction           -0.000000 eV
 added-field ion interaction          0.003257 eV  (added to PSCEN)


 Free energy of the ion-electron system (eV)
  ---------------------------------------------------
  alpha Z        PSCENC =         1.22541995
  Ewald energy   TEWEN  =      1676.89251001
  -Hartree energ DENC   =     -2853.74218483
  -exchange      EXHF   =         0.00000000
  -V(xc)+E(xc)   XCENC  =        98.75867290
  PAW double counting   =      1149.40619923    -1155.35680094
  entropy T*S    EENTRO =        -0.00000000
  eigenvalues    EBANDS =      -186.61927642
  atomic energy  EATOM  =      1456.71428276
  Solvation  Ecorr_sol  =         0.00000000
  ---------------------------------------------------
  free energy    TOTEN  =       187.27882267 eV

  energy without entropy =      187.27882267  energy(sigma->0) =      187.27882267


--------------------------------------------------------------------------------------------------------




--------------------------------------- Iteration      1(   2)  ---------------------------------------


     EDDAV:  cpu time    1.3351: real time    1.3417
       DOS:  cpu time    0.0002: real time    0.0002
    --------------------------------------------
      LOOP:  cpu time    1.3353: real time    1.3419

 eigenvalue-minimisations  :   152
 total energy-change (2. order) :-0.1524757E+03  (-0.1492962E+03)
 number of electron      23.0000000 magnetization       5.0000000
 augmentation part       23.0000000 magnetization       5.0000000

 DIPCOR: dipole corrections for dipol
 direction  3 min pos   269,
 dipolmoment           0.000000      0.000000     -0.000200 electrons x Angstroem
 Tr[quadrupol]      -460.859104

 energy correction for charged system         0.000000 eV
 dipol+quadrupol energy correction           -0.000000 eV
 added-field ion interaction          0.003257 eV  (added to PSCEN)


 Free energy of the ion-electron system (eV)
  ---------------------------------------------------
  alpha Z        PSCENC =         1.22541995
  Ewald energy   TEWEN  =      1676.89251001
  -Hartree energ DENC   =     -2853.74218483
  -exchange      EXHF   =         0.00000000
  -V(xc)+E(xc)   XCENC  =        98.75867290
  PAW double counting   =      1149.40619923    -1155.35680094
  entropy T*S    EENTRO =        -0.00000000
  eigenvalues    EBANDS =      -339.09493895
  atomic energy  EATOM  =      1456.71428276
  Solvation  Ecorr_sol  =         0.00000000
  ---------------------------------------------------
  free energy    TOTEN  =        34.80316013 eV

  energy without entropy =       34.80316013  energy(sigma->0) =       34.80316013


--------------------------------------------------------------------------------------------------------




--------------------------------------- Iteration      1(   3)  ---------------------------------------


     EDDAV:  cpu time    0.8739: real time    1.1352
       DOS:  cpu time    0.0003: real time    0.0003
    --------------------------------------------
      LOOP:  cpu time    0.8742: real time    1.1355

 eigenvalue-minimisations  :   112
 total energy-change (2. order) :-0.6095909E+02  (-0.6078958E+02)
 number of electron      23.0000000 magnetization       5.0000000
 augmentation part       23.0000000 magnetization       5.0000000

 DIPCOR: dipole corrections for dipol
 direction  3 min pos   269,
 dipolmoment           0.000000      0.000000     -0.000200 electrons x Angstroem
 Tr[quadrupol]      -460.859104

 energy correction for charged system         0.000000 eV
 dipol+quadrupol energy correction           -0.000000 eV
 added-field ion interaction          0.003257 eV  (added to PSCEN)


 Free energy of the ion-electron system (eV)
  ---------------------------------------------------
  alpha Z        PSCENC =         1.22541995
  Ewald energy   TEWEN  =      1676.89251001
  -Hartree energ DENC   =     -2853.74218483
  -exchange      EXHF   =         0.00000000
  -V(xc)+E(xc)   XCENC  =        98.75867290
  PAW double counting   =      1149.40619923    -1155.35680094
  entropy T*S    EENTRO =        -0.00000000
  eigenvalues    EBANDS =      -400.05403056
  atomic energy  EATOM  =      1456.71428276
  Solvation  Ecorr_sol  =         0.00000000
  ---------------------------------------------------
  free energy    TOTEN  =       -26.15593148 eV

  energy without entropy =      -26.15593148  energy(sigma->0) =      -26.15593148


--------------------------------------------------------------------------------------------------------




--------------------------------------- Iteration      1(   4)  ---------------------------------------


     EDDAV:  cpu time    0.7648: real time    0.7685
       DOS:  cpu time    0.0002: real time    0.0002
    --------------------------------------------
      LOOP:  cpu time    0.7650: real time    0.7687

 eigenvalue-minimisations  :    96
 total energy-change (2. order) :-0.4555625E+01  (-0.4541123E+01)
 number of electron      23.0000000 magnetization       5.0000000
 augmentation part       23.0000000 magnetization       5.0000000

 DIPCOR: dipole corrections for dipol
 direction  3 min pos   269,
 dipolmoment           0.000000      0.000000     -0.000200 electrons x Angstroem
 Tr[quadrupol]      -460.859104

 energy correction for charged system         0.000000 eV
 dipol+quadrupol energy correction           -0.000000 eV
 added-field ion interaction          0.003257 eV  (added to PSCEN)


 Free energy of the ion-electron system (eV)
  ---------------------------------------------------
  alpha Z        PSCENC =         1.22541995
  Ewald energy   TEWEN  =      1676.89251001
  -Hartree energ DENC   =     -2853.74218483
  -exchange      EXHF   =         0.00000000
  -V(xc)+E(xc)   XCENC  =        98.75867290
  PAW double counting   =      1149.40619923    -1155.35680094
  entropy T*S    EENTRO =        -0.00000000
  eigenvalues    EBANDS =      -404.60965549
  atomic energy  EATOM  =      1456.71428276
  Solvation  Ecorr_sol  =         0.00000000
  ---------------------------------------------------
  free energy    TOTEN  =       -30.71155641 eV

  energy without entropy =      -30.71155641  energy(sigma->0) =      -30.71155641


--------------------------------------------------------------------------------------------------------




--------------------------------------- Iteration      1(   5)  ---------------------------------------


     EDDAV:  cpu time    0.8569: real time    0.8621
       DOS:  cpu time    0.0002: real time    0.0002
    CHARGE:  cpu time    0.0984: real time    0.0989
    MIXING:  cpu time    0.0280: real time    0.0285
    --------------------------------------------
      LOOP:  cpu time    0.9835: real time    0.9897

 eigenvalue-minimisations  :   104
 total energy-change (2. order) :-0.4659609E-01  (-0.4653815E-01)
 number of electron      22.9999996 magnetization       4.7140364
 augmentation part        2.1905658 magnetization       3.9487039

 DIPCOR: dipole corrections for dipol
 direction  3 min pos   269,
 dipolmoment           0.000000      0.000000     -0.000200 electrons x Angstroem
 Tr[quadrupol]      -460.859104

 energy correction for charged system         0.000000 eV
 dipol+quadrupol energy correction           -0.000000 eV
 added-field ion interaction          0.003257 eV  (added to PSCEN)


 Broyden mixing:
  rms(total) = 0.15059E+01    rms(broyden)= 0.15052E+01
  rms(prec ) = 0.15270E+01
  weight for this iteration     100.00

 Free energy of the ion-electron system (eV)
  ---------------------------------------------------
  alpha Z        PSCENC =         1.22541995
  Ewald energy   TEWEN  =      1676.89251001
  -Hartree energ DENC   =     -2853.74218483
  -exchange      EXHF   =         0.00000000
  -V(xc)+E(xc)   XCENC  =        98.75867290
  PAW double counting   =      1149.40619923    -1155.35680094
  entropy T*S    EENTRO =        -0.00000000
  eigenvalues    EBANDS =      -404.65625159
  atomic energy  EATOM  =      1456.71428276
  Solvation  Ecorr_sol  =         0.00000000
  ---------------------------------------------------
  free energy    TOTEN  =       -30.75815250 eV

  energy without entropy =      -30.75815250  energy(sigma->0) =      -30.75815250


--------------------------------------------------------------------------------------------------------




--------------------------------------- Iteration      1(   6)  ---------------------------------------


    POTLOK:  cpu time    0.7967: real time    0.8007
    SETDIJ:  cpu time    0.0123: real time    0.0123
    EDDIAG:  cpu time    0.1539: real time    0.1546
  RMM-DIIS:  cpu time    0.7009: real time    0.7041
    ORTHCH:  cpu time    0.0092: real time    0.0093
       DOS:  cpu time    0.0002: real time    0.0002
    CHARGE:  cpu time    0.0951: real time    0.0955
    MIXING:  cpu time    0.0265: real time    0.0305
    --------------------------------------------
      LOOP:  cpu time    1.7947: real time    1.8071

 eigenvalue-minimisations  :    94
 total energy-change (2. order) : 0.1148945E+02  (-0.1911821E+01)
 number of electron      22.9999996 magnetization       4.4548795
 augmentation part        2.0445488 magnetization       3.6010970

 DIPCOR: dipole corrections for dipol
 direction  3 min pos   269,
 dipolmoment           0.000000      0.000000     -0.041453 electrons x Angstroem
 Tr[quadrupol]      -461.755141

 energy correction for charged system         0.000000 eV
 dipol+quadrupol energy correction           -0.000089 eV
 added-field ion interaction          0.674857 eV  (added to PSCEN)


 Broyden mixing:
  rms(total) = 0.56959E+00    rms(broyden)= 0.56940E+00
  rms(prec ) = 0.57918E+00
  weight for this iteration     100.00

 eigenvalues of (default mixing * dielectric matrix)
  average eigenvalue GAMMA=   0.8782
  0.8782

 Free energy of the ion-electron system (eV)
  ---------------------------------------------------
  alpha Z        PSCENC =         1.89693067
  Ewald energy   TEWEN  =      1676.89251001
  -Hartree energ DENC   =     -2887.78720161
  -exchange      EXHF   =         0.00000000
  -V(xc)+E(xc)   XCENC  =       109.70141954
  PAW double counting   =      1431.65000909    -1438.17502008
  entropy T*S    EENTRO =        -0.00000000
  eigenvalues    EBANDS =      -370.16162937
  atomic energy  EATOM  =      1456.71428276
  Solvation  Ecorr_sol  =         0.00000000
  ---------------------------------------------------
  free energy    TOTEN  =       -19.26869899 eV

  energy without entropy =      -19.26869899  energy(sigma->0) =      -19.26869899


--------------------------------------------------------------------------------------------------------




--------------------------------------- Iteration      1(   7)  ---------------------------------------


    POTLOK:  cpu time    0.7665: real time    0.7720
    SETDIJ:  cpu time    0.0108: real time    0.0108
    EDDIAG:  cpu time    0.1525: real time    0.1531
  RMM-DIIS:  cpu time    0.6688: real time    0.6717
    ORTHCH:  cpu time    0.0088: real time    0.0089
       DOS:  cpu time    0.0002: real time    0.0001
    CHARGE:  cpu time    0.0954: real time    0.0960
    MIXING:  cpu time    0.0248: real time    0.0249
    --------------------------------------------
      LOOP:  cpu time    1.7278: real time    1.7377

 eigenvalue-minimisations  :    95
 total energy-change (2. order) :-0.6580656E+01  (-0.4400526E+00)
 number of electron      22.9999996 magnetization       4.2224666
 augmentation part        1.9704081 magnetization       3.3983177

 DIPCOR: dipole corrections for dipol
 direction  3 min pos   269,
 dipolmoment           0.000000      0.000000     -0.071089 electrons x Angstroem
 Tr[quadrupol]      -462.453201

 energy correction for charged system         0.000000 eV
 dipol+quadrupol energy correction           -0.000263 eV
 added-field ion interaction          1.157337 eV  (added to PSCEN)


 Broyden mixing:
  rms(total) = 0.36680E+00    rms(broyden)= 0.36673E+00
  rms(prec ) = 0.37182E+00
  weight for this iteration     100.00

 eigenvalues of (default mixing * dielectric matrix)
  average eigenvalue GAMMA=   0.8746
  0.9543  0.7950

 Free energy of the ion-electron system (eV)
  ---------------------------------------------------
  alpha Z        PSCENC =         2.37923708
  Ewald energy   TEWEN  =      1676.89251001
  -Hartree energ DENC   =     -2902.59328730
  -exchange      EXHF   =         0.00000000
  -V(xc)+E(xc)   XCENC  =       105.25245971
  PAW double counting   =      1616.42064301    -1623.07037821
  entropy T*S    EENTRO =        -0.00000000
  eigenvalues    EBANDS =      -357.84482230
  atomic energy  EATOM  =      1456.71428276
  Solvation  Ecorr_sol  =         0.00000000
  ---------------------------------------------------
  free energy    TOTEN  =       -25.84935524 eV

  energy without entropy =      -25.84935524  energy(sigma->0) =      -25.84935524


--------------------------------------------------------------------------------------------------------




--------------------------------------- Iteration      1(   8)  ---------------------------------------


    POTLOK:  cpu time    0.7710: real time    0.7764
    SETDIJ:  cpu time    0.0134: real time    0.0134
    EDDIAG:  cpu time    0.1481: real time    0.1487
  RMM-DIIS:  cpu time    0.7428: real time    0.7461
    ORTHCH:  cpu time    0.0093: real time    0.0094
       DOS:  cpu time    0.0002: real time    0.0002
    CHARGE:  cpu time    0.0958: real time    0.0963
    MIXING:  cpu time    0.0268: real time    0.0269
    --------------------------------------------
      LOOP:  cpu time    1.8074: real time    1.8174

 eigenvalue-minimisations  :   101
 total energy-change (2. order) :-0.1375430E+01  (-0.5661962E-01)
 number of electron      22.9999996 magnetization       3.7858468
 augmentation part        1.9658367 magnetization       2.9800290

 DIPCOR: dipole corrections for dipol
 direction  3 min pos   269,
 dipolmoment           0.000000      0.000000     -0.098128 electrons x Angstroem
 Tr[quadrupol]      -463.018900

 energy correction for charged system         0.000000 eV
 dipol+quadrupol energy correction           -0.000501 eV
 added-field ion interaction          1.597521 eV  (added to PSCEN)


 Broyden mixing:
  rms(total) = 0.23666E+00    rms(broyden)= 0.23665E+00
  rms(prec ) = 0.23949E+00
  weight for this iteration     100.00

 eigenvalues of (default mixing * dielectric matrix)
  average eigenvalue GAMMA=   1.1514
  1.7312  1.0382  0.6848

 Free energy of the ion-electron system (eV)
  ---------------------------------------------------
  alpha Z        PSCENC =         2.81918261
  Ewald energy   TEWEN  =      1676.89251001
  -Hartree energ DENC   =     -2905.78850823
  -exchange      EXHF   =         0.00000000
  -V(xc)+E(xc)   XCENC  =       104.19303363
  PAW double counting   =      1724.02186805    -1730.60024102
  entropy T*S    EENTRO =        -0.00000000
  eigenvalues    EBANDS =      -355.47691300
  atomic energy  EATOM  =      1456.71428276
  Solvation  Ecorr_sol  =         0.00000000
  ---------------------------------------------------
  free energy    TOTEN  =       -27.22478518 eV

  energy without entropy =      -27.22478518  energy(sigma->0) =      -27.22478518


--------------------------------------------------------------------------------------------------------




--------------------------------------- Iteration      1(   9)  ---------------------------------------


    POTLOK:  cpu time    0.7706: real time    0.7742
    SETDIJ:  cpu time    0.0135: real time    0.0136
    EDDIAG:  cpu time    0.1483: real time    0.1489
  RMM-DIIS:  cpu time    0.6520: real time    0.6547
    ORTHCH:  cpu time    0.0087: real time    0.0088
       DOS:  cpu time    0.0002: real time    0.0002
    CHARGE:  cpu time    0.0940: real time    0.0944
    MIXING:  cpu time    0.0246: real time    0.0250
    --------------------------------------------
      LOOP:  cpu time    1.7119: real time    1.7197

 eigenvalue-minimisations  :    88
 total energy-change (2. order) :-0.1702350E+01  (-0.4540834E-01)
 number of electron      22.9999996 magnetization       3.5858564
 augmentation part        1.9762690 magnetization       2.7968686

 DIPCOR: dipole corrections for dipol
 direction  3 min pos   269,
 dipolmoment           0.000000      0.000000     -0.145573 electrons x Angstroem
 Tr[quadrupol]      -463.934111

 energy correction for charged system         0.000000 eV
 dipol+quadrupol energy correction           -0.001102 eV
 added-field ion interaction          2.369931 eV  (added to PSCEN)


 Broyden mixing:
  rms(total) = 0.14766E+00    rms(broyden)= 0.14758E+00
  rms(prec ) = 0.15044E+00
  weight for this iteration     100.00

 eigenvalues of (default mixing * dielectric matrix)
  average eigenvalue GAMMA=   1.1159
  1.9876  0.9235  0.7763  0.7763

 Free energy of the ion-electron system (eV)
  ---------------------------------------------------
  alpha Z        PSCENC =         3.59099222
  Ewald energy   TEWEN  =      1676.89251001
  -Hartree energ DENC   =     -2908.53513013
  -exchange      EXHF   =         0.00000000
  -V(xc)+E(xc)   XCENC  =       102.79629950
  PAW double counting   =      1868.49457740    -1874.98136276
  entropy T*S    EENTRO =        -0.00000000
  eigenvalues    EBANDS =      -353.89930440
  atomic energy  EATOM  =      1456.71428276
  Solvation  Ecorr_sol  =         0.00000000
  ---------------------------------------------------
  free energy    TOTEN  =       -28.92713540 eV

  energy without entropy =      -28.92713540  energy(sigma->0) =      -28.92713540


--------------------------------------------------------------------------------------------------------




--------------------------------------- Iteration      1(  10)  ---------------------------------------


    POTLOK:  cpu time    0.7644: real time    0.7699
    SETDIJ:  cpu time    0.0111: real time    0.0112
    EDDIAG:  cpu time    0.1524: real time    0.1530
  RMM-DIIS:  cpu time    0.6393: real time    0.6420
    ORTHCH:  cpu time    0.0089: real time    0.0089
       DOS:  cpu time    0.0002: real time    0.0002
    CHARGE:  cpu time    0.0960: real time    0.0964
    MIXING:  cpu time    0.0257: real time    0.0258
    --------------------------------------------
      LOOP:  cpu time    1.6980: real time    1.7074

 eigenvalue-minimisations  :    91
 total energy-change (2. order) :-0.3737649E+00  (-0.1147596E-01)
 number of electron      22.9999996 magnetization       3.4423583
 augmentation part        1.9689141 magnetization       2.6594807

 DIPCOR: dipole corrections for dipol
 direction  3 min pos   269,
 dipolmoment           0.000000      0.000000     -0.166819 electrons x Angstroem
 Tr[quadrupol]      -464.290146

 energy correction for charged system         0.000000 eV
 dipol+quadrupol energy correction           -0.001447 eV
 added-field ion interaction          2.715817 eV  (added to PSCEN)


 Broyden mixing:
  rms(total) = 0.13913E+00    rms(broyden)= 0.13905E+00
  rms(prec ) = 0.14134E+00
  weight for this iteration     100.00

 eigenvalues of (default mixing * dielectric matrix)
  average eigenvalue GAMMA=   1.0525
  2.2847  0.9986  0.8584  0.6250  0.4956

 Free energy of the ion-electron system (eV)
  ---------------------------------------------------
  alpha Z        PSCENC =         3.93653254
  Ewald energy   TEWEN  =      1676.89251001
  -Hartree energ DENC   =     -2909.92213957
  -exchange      EXHF   =         0.00000000
  -V(xc)+E(xc)   XCENC  =       102.55634712
  PAW double counting   =      1896.78471210    -1903.27188970
  entropy T*S    EENTRO =        -0.00000000
  eigenvalues    EBANDS =      -352.99125560
  atomic energy  EATOM  =      1456.71428276
  Solvation  Ecorr_sol  =         0.00000000
  ---------------------------------------------------
  free energy    TOTEN  =       -29.30090034 eV

  energy without entropy =      -29.30090034  energy(sigma->0) =      -29.30090034


--------------------------------------------------------------------------------------------------------




--------------------------------------- Iteration      1(  11)  ---------------------------------------


    POTLOK:  cpu time    0.7705: real time    0.7755
    SETDIJ:  cpu time    0.0119: real time    0.0119
    EDDIAG:  cpu time    0.1493: real time    0.1501
  RMM-DIIS:  cpu time    0.6935: real time    0.6965
    ORTHCH:  cpu time    0.0091: real time    0.0091
       DOS:  cpu time    0.0003: real time    0.0003
    CHARGE:  cpu time    0.0920: real time    0.0924
    MIXING:  cpu time    0.0265: real time    0.0266
    --------------------------------------------
      LOOP:  cpu time    1.7530: real time    1.7625

 eigenvalue-minimisations  :    94
 total energy-change (2. order) :-0.2320731E+00  (-0.3052281E-02)
 number of electron      22.9999996 magnetization       3.0239476
 augmentation part        1.9654712 magnetization       2.2432133

 DIPCOR: dipole corrections for dipol
 direction  3 min pos   269,
 dipolmoment           0.000000      0.000000     -0.182702 electrons x Angstroem
 Tr[quadrupol]      -464.541119

 energy correction for charged system         0.000000 eV
 dipol+quadrupol energy correction           -0.001736 eV
 added-field ion interaction          2.974394 eV  (added to PSCEN)


 Broyden mixing:
  rms(total) = 0.95258E-01    rms(broyden)= 0.95256E-01
  rms(prec ) = 0.96289E-01
  weight for this iteration     100.00

 eigenvalues of (default mixing * dielectric matrix)
  average eigenvalue GAMMA=   1.1459
  2.4005  1.5446  0.8936  0.7739  0.6315  0.6315

 Free energy of the ion-electron system (eV)
  ---------------------------------------------------
  alpha Z        PSCENC =         4.19482076
  Ewald energy   TEWEN  =      1676.89251001
  -Hartree energ DENC   =     -2910.19150186
  -exchange      EXHF   =         0.00000000
  -V(xc)+E(xc)   XCENC  =       102.36731859
  PAW double counting   =      1908.16461449    -1914.64967184
  entropy T*S    EENTRO =         0.00000000
  eigenvalues    EBANDS =      -353.02534630
  atomic energy  EATOM  =      1456.71428276
  Solvation  Ecorr_sol  =         0.00000000
  ---------------------------------------------------
  free energy    TOTEN  =       -29.53297339 eV

  energy without entropy =      -29.53297339  energy(sigma->0) =      -29.53297339


--------------------------------------------------------------------------------------------------------




--------------------------------------- Iteration      1(  12)  ---------------------------------------


    POTLOK:  cpu time    0.7630: real time    0.7681
    SETDIJ:  cpu time    0.0112: real time    0.0113
    EDDIAG:  cpu time    0.1508: real time    0.1515
  RMM-DIIS:  cpu time    0.6551: real time    0.6582
    ORTHCH:  cpu time    0.0094: real time    0.0095
       DOS:  cpu time    0.0002: real time    0.0002
    CHARGE:  cpu time    0.0930: real time    0.0935
    MIXING:  cpu time    0.0267: real time    0.0268
    --------------------------------------------
      LOOP:  cpu time    1.7094: real time    1.7188

 eigenvalue-minimisations  :    89
 total energy-change (2. order) :-0.5087601E+00  (-0.7134540E-02)
 number of electron      22.9999996 magnetization       2.7261186
 augmentation part        1.9620167 magnetization       1.9475755

 DIPCOR: dipole corrections for dipol
 direction  3 min pos   269,
 dipolmoment           0.000000      0.000000     -0.229685 electrons x Angstroem
 Tr[quadrupol]      -465.219937

 energy correction for charged system         0.000000 eV
 dipol+quadrupol energy correction           -0.002743 eV
 added-field ion interaction          3.739285 eV  (added to PSCEN)


 Broyden mixing:
  rms(total) = 0.10267E+00    rms(broyden)= 0.10259E+00
  rms(prec ) = 0.10464E+00
  weight for this iteration     100.00

 eigenvalues of (default mixing * dielectric matrix)
  average eigenvalue GAMMA=   1.1606
  2.6437  1.8698  0.8996  0.8996  0.6552  0.5779  0.5779

 Free energy of the ion-electron system (eV)
  ---------------------------------------------------
  alpha Z        PSCENC =         4.95870478
  Ewald energy   TEWEN  =      1676.89251001
  -Hartree energ DENC   =     -2909.75463980
  -exchange      EXHF   =         0.00000000
  -V(xc)+E(xc)   XCENC  =       101.90363946
  PAW double counting   =      1908.69128855    -1915.16326915
  entropy T*S    EENTRO =         0.00000000
  eigenvalues    EBANDS =      -354.28425006
  atomic energy  EATOM  =      1456.71428276
  Solvation  Ecorr_sol  =         0.00000000
  ---------------------------------------------------
  free energy    TOTEN  =       -30.04173346 eV

  energy without entropy =      -30.04173346  energy(sigma->0) =      -30.04173346


--------------------------------------------------------------------------------------------------------




--------------------------------------- Iteration      1(  13)  ---------------------------------------


    POTLOK:  cpu time    0.8446: real time    0.8493
    SETDIJ:  cpu time    0.0101: real time    0.0101
    EDDIAG:  cpu time    0.1692: real time    0.1701
  RMM-DIIS:  cpu time    0.7640: real time    0.7680
    ORTHCH:  cpu time    0.0091: real time    0.0092
       DOS:  cpu time    0.0002: real time    0.0002
    CHARGE:  cpu time    0.1055: real time    0.1061
    MIXING:  cpu time    0.0277: real time    0.0278
    --------------------------------------------
      LOOP:  cpu time    1.9303: real time    1.9408

 eigenvalue-minimisations  :    91
 total energy-change (2. order) :-0.2165926E+00  (-0.3932571E-02)
 number of electron      22.9999996 magnetization       2.2047463
 augmentation part        1.9605149 magnetization       1.4294799

 DIPCOR: dipole corrections for dipol
 direction  3 min pos   269,
 dipolmoment           0.000000      0.000000     -0.262964 electrons x Angstroem
 Tr[quadrupol]      -465.671197

 energy correction for charged system         0.000000 eV
 dipol+quadrupol energy correction           -0.003596 eV
 added-field ion interaction          4.281067 eV  (added to PSCEN)


 Broyden mixing:
  rms(total) = 0.66539E-01    rms(broyden)= 0.66476E-01
  rms(prec ) = 0.67124E-01
  weight for this iteration     100.00

 eigenvalues of (default mixing * dielectric matrix)
  average eigenvalue GAMMA=   1.2479
  3.2091  2.1240  1.0549  1.0549  0.7992  0.6414  0.5500  0.5500

 Free energy of the ion-electron system (eV)
  ---------------------------------------------------
  alpha Z        PSCENC =         5.49963397
  Ewald energy   TEWEN  =      1676.89251001
  -Hartree energ DENC   =     -2909.48506246
  -exchange      EXHF   =         0.00000000
  -V(xc)+E(xc)   XCENC  =       101.70236300
  PAW double counting   =      1907.06384729    -1913.52991143
  entropy T*S    EENTRO =        -0.00000000
  eigenvalues    EBANDS =      -355.11598924
  atomic energy  EATOM  =      1456.71428276
  Solvation  Ecorr_sol  =         0.00000000
  ---------------------------------------------------
  free energy    TOTEN  =       -30.25832610 eV

  energy without entropy =      -30.25832610  energy(sigma->0) =      -30.25832610


--------------------------------------------------------------------------------------------------------




--------------------------------------- Iteration      1(  14)  ---------------------------------------


    POTLOK:  cpu time    0.8381: real time    0.8495
    SETDIJ:  cpu time    0.0139: real time    0.0139
    EDDIAG:  cpu time    0.1663: real time    0.1671
  RMM-DIIS:  cpu time    0.7695: real time    0.7732
    ORTHCH:  cpu time    0.0095: real time    0.0095
       DOS:  cpu time    0.0002: real time    0.0002
    CHARGE:  cpu time    0.1030: real time    0.1035
    MIXING:  cpu time    0.0339: real time    0.0341
    --------------------------------------------
      LOOP:  cpu time    1.9343: real time    1.9510

 eigenvalue-minimisations  :    89
 total energy-change (2. order) :-0.3902998E+00  (-0.8007338E-02)
 number of electron      22.9999996 magnetization       1.6951398
 augmentation part        1.9640360 magnetization       0.9246984

 DIPCOR: dipole corrections for dipol
 direction  3 min pos   269,
 dipolmoment           0.000000      0.000000     -0.322050 electrons x Angstroem
 Tr[quadrupol]      -466.410268

 energy correction for charged system         0.000000 eV
 dipol+quadrupol energy correction           -0.005394 eV
 added-field ion interaction          5.242988 eV  (added to PSCEN)


 Broyden mixing:
  rms(total) = 0.48620E-01    rms(broyden)= 0.48609E-01
  rms(prec ) = 0.49432E-01
  weight for this iteration     100.00

 eigenvalues of (default mixing * dielectric matrix)
  average eigenvalue GAMMA=   1.5969
  6.2047  2.3556  1.5162  0.9153  0.9153  0.5536  0.5536  0.7317  0.6259

 Free energy of the ion-electron system (eV)
  ---------------------------------------------------
  alpha Z        PSCENC =         6.45975746
  Ewald energy   TEWEN  =      1676.89251001
  -Hartree energ DENC   =     -2908.74421012
  -exchange      EXHF   =         0.00000000
  -V(xc)+E(xc)   XCENC  =       101.30874308
  PAW double counting   =      1899.55374647    -1906.00239835
  entropy T*S    EENTRO =        -0.00000000
  eigenvalues    EBANDS =      -356.83105719
  atomic energy  EATOM  =      1456.71428276
  Solvation  Ecorr_sol  =         0.00000000
  ---------------------------------------------------
  free energy    TOTEN  =       -30.64862588 eV

  energy without entropy =      -30.64862588  energy(sigma->0) =      -30.64862588


--------------------------------------------------------------------------------------------------------




--------------------------------------- Iteration      1(  15)  ---------------------------------------


    POTLOK:  cpu time    0.8518: real time    0.8577
    SETDIJ:  cpu time    0.0115: real time    0.0116
    EDDIAG:  cpu time    0.1696: real time    0.1705
  RMM-DIIS:  cpu time    0.7606: real time    0.7643
    ORTHCH:  cpu time    0.0092: real time    0.0092
       DOS:  cpu time    0.0002: real time    0.0002
    CHARGE:  cpu time    0.1041: real time    0.1046
    MIXING:  cpu time    0.0307: real time    0.0308
    --------------------------------------------
      LOOP:  cpu time    1.9377: real time    1.9489

 eigenvalue-minimisations  :    89
 total energy-change (2. order) :-0.2635050E+00  (-0.9160279E-02)
 number of electron      22.9999996 magnetization       1.4780715
 augmentation part        1.9634105 magnetization       0.7122500

 DIPCOR: dipole corrections for dipol
 direction  3 min pos   269,
 dipolmoment           0.000000      0.000000     -0.379604 electrons x Angstroem
 Tr[quadrupol]      -467.071189

 energy correction for charged system         0.000000 eV
 dipol+quadrupol energy correction           -0.007494 eV
 added-field ion interaction          6.179974 eV  (added to PSCEN)


 Broyden mixing:
  rms(total) = 0.26093E-01    rms(broyden)= 0.26068E-01
  rms(prec ) = 0.26657E-01
  weight for this iteration     100.00

 eigenvalues of (default mixing * dielectric matrix)
  average eigenvalue GAMMA=   1.7647
  8.2887  2.4118  1.5554  0.9700  0.9700  1.0069  0.5584  0.5584  0.7102  0.6169

 Free energy of the ion-electron system (eV)
  ---------------------------------------------------
  alpha Z        PSCENC =         7.39464348
  Ewald energy   TEWEN  =      1676.89251001
  -Hartree energ DENC   =     -2908.55587809
  -exchange      EXHF   =         0.00000000
  -V(xc)+E(xc)   XCENC  =       101.07068945
  PAW double counting   =      1892.81485629    -1899.26549945
  entropy T*S    EENTRO =         0.00000000
  eigenvalues    EBANDS =      -357.97773532
  atomic energy  EATOM  =      1456.71428276
  Solvation  Ecorr_sol  =         0.00000000
  ---------------------------------------------------
  free energy    TOTEN  =       -30.91213087 eV

  energy without entropy =      -30.91213087  energy(sigma->0) =      -30.91213087


--------------------------------------------------------------------------------------------------------




--------------------------------------- Iteration      1(  16)  ---------------------------------------


    POTLOK:  cpu time    0.8421: real time    0.8476
    SETDIJ:  cpu time    0.0094: real time    0.0094
    EDDIAG:  cpu time    0.1701: real time    0.1711
  RMM-DIIS:  cpu time    0.7837: real time    0.7877
    ORTHCH:  cpu time    0.0100: real time    0.0101
       DOS:  cpu time    0.0002: real time    0.0002
    CHARGE:  cpu time    0.1019: real time    0.1025
    MIXING:  cpu time    0.0312: real time    0.0316
    --------------------------------------------
      LOOP:  cpu time    1.9488: real time    1.9601

 eigenvalue-minimisations  :    95
 total energy-change (2. order) :-0.1824643E+00  (-0.3119830E-02)
 number of electron      22.9999996 magnetization       1.3546263
 augmentation part        1.9585854 magnetization       0.5920380

 DIPCOR: dipole corrections for dipol
 direction  3 min pos   269,
 dipolmoment           0.000000      0.000000     -0.403212 electrons x Angstroem
 Tr[quadrupol]      -467.255605

 energy correction for charged system         0.000000 eV
 dipol+quadrupol energy correction           -0.008455 eV
 added-field ion interaction          6.564317 eV  (added to PSCEN)


 Broyden mixing:
  rms(total) = 0.16112E-01    rms(broyden)= 0.16095E-01
  rms(prec ) = 0.16638E-01
  weight for this iteration     100.00

 eigenvalues of (default mixing * dielectric matrix)
  average eigenvalue GAMMA=   1.8742
  9.7987  2.4820  1.5835  1.5835  0.9749  0.9749  0.5585  0.5585  0.7927  0.6943
  0.6142

 Free energy of the ion-electron system (eV)
  ---------------------------------------------------
  alpha Z        PSCENC =         7.77802459
  Ewald energy   TEWEN  =      1676.89251001
  -Hartree energ DENC   =     -2908.45150902
  -exchange      EXHF   =         0.00000000
  -V(xc)+E(xc)   XCENC  =       100.90939427
  PAW double counting   =      1890.85635880    -1897.31743139
  entropy T*S    EENTRO =        -0.00000000
  eigenvalues    EBANDS =      -358.47622518
  atomic energy  EATOM  =      1456.71428276
  Solvation  Ecorr_sol  =         0.00000000
  ---------------------------------------------------
  free energy    TOTEN  =       -31.09459516 eV

  energy without entropy =      -31.09459516  energy(sigma->0) =      -31.09459516


--------------------------------------------------------------------------------------------------------




--------------------------------------- Iteration      1(  17)  ---------------------------------------


    POTLOK:  cpu time    0.8506: real time    0.8569
    SETDIJ:  cpu time    0.0107: real time    0.0107
    EDDIAG:  cpu time    0.1703: real time    0.1712
  RMM-DIIS:  cpu time    0.7849: real time    0.7887
    ORTHCH:  cpu time    0.0090: real time    0.0090
       DOS:  cpu time    0.0002: real time    0.0002
    CHARGE:  cpu time    0.1034: real time    0.1039
    MIXING:  cpu time    0.0339: real time    0.0341
    --------------------------------------------
      LOOP:  cpu time    1.9628: real time    1.9747

 eigenvalue-minimisations  :    95
 total energy-change (2. order) :-0.5133635E-01  (-0.3434184E-03)
 number of electron      22.9999996 magnetization       1.2558589
 augmentation part        1.9588136 magnetization       0.4943180

 DIPCOR: dipole corrections for dipol
 direction  3 min pos   269,
 dipolmoment           0.000000      0.000000     -0.415252 electrons x Angstroem
 Tr[quadrupol]      -467.275136

 energy correction for charged system         0.000000 eV
 dipol+quadrupol energy correction           -0.008967 eV
 added-field ion interaction          6.760328 eV  (added to PSCEN)


 Broyden mixing:
  rms(total) = 0.11574E-01    rms(broyden)= 0.11572E-01
  rms(prec ) = 0.11917E-01
  weight for this iteration     100.00

 eigenvalues of (default mixing * dielectric matrix)
  average eigenvalue GAMMA=   1.8832
 10.3344  2.6267  2.1295  1.3744  0.9737  0.9737  1.0454  0.5590  0.5590  0.7354
  0.6705  0.6169

 Free energy of the ion-electron system (eV)
  ---------------------------------------------------
  alpha Z        PSCENC =         7.97352366
  Ewald energy   TEWEN  =      1676.89251001
  -Hartree energ DENC   =     -2907.79067821
  -exchange      EXHF   =         0.00000000
  -V(xc)+E(xc)   XCENC  =       100.84015543
  PAW double counting   =      1890.77931358    -1897.23714772
  entropy T*S    EENTRO =        -0.00000000
  eigenvalues    EBANDS =      -359.31789102
  atomic energy  EATOM  =      1456.71428276
  Solvation  Ecorr_sol  =         0.00000000
  ---------------------------------------------------
  free energy    TOTEN  =       -31.14593151 eV

  energy without entropy =      -31.14593151  energy(sigma->0) =      -31.14593151


--------------------------------------------------------------------------------------------------------




--------------------------------------- Iteration      1(  18)  ---------------------------------------


    POTLOK:  cpu time    0.8479: real time    0.8548
    SETDIJ:  cpu time    0.0122: real time    0.0122
    EDDIAG:  cpu time    0.1669: real time    0.1678
  RMM-DIIS:  cpu time    0.7811: real time    0.7850
    ORTHCH:  cpu time    0.0096: real time    0.0096
       DOS:  cpu time    0.0002: real time    0.0002
    CHARGE:  cpu time    0.1031: real time    0.1036
    MIXING:  cpu time    0.0340: real time    0.0342
    --------------------------------------------
      LOOP:  cpu time    1.9550: real time    1.9675

 eigenvalue-minimisations  :    95
 total energy-change (2. order) :-0.2801460E-01  (-0.1431497E-03)
 number of electron      22.9999996 magnetization       1.1868652
 augmentation part        1.9595672 magnetization       0.4255382

 DIPCOR: dipole corrections for dipol
 direction  3 min pos   269,
 dipolmoment           0.000000      0.000000     -0.422776 electrons x Angstroem
 Tr[quadrupol]      -467.230637

 energy correction for charged system         0.000000 eV
 dipol+quadrupol energy correction           -0.009295 eV
 added-field ion interaction          6.882812 eV  (added to PSCEN)


 Broyden mixing:
  rms(total) = 0.76931E-02    rms(broyden)= 0.76919E-02
  rms(prec ) = 0.78655E-02
  weight for this iteration     100.00

 eigenvalues of (default mixing * dielectric matrix)
  average eigenvalue GAMMA=   1.9925
 11.1374  3.6841  2.3741  1.3763  1.3763  1.0010  1.0010  0.5589  0.5589  0.8419
  0.7246  0.6218  0.6466

 Free energy of the ion-electron system (eV)
  ---------------------------------------------------
  alpha Z        PSCENC =         8.09567989
  Ewald energy   TEWEN  =      1676.89251001
  -Hartree energ DENC   =     -2907.27346166
  -exchange      EXHF   =         0.00000000
  -V(xc)+E(xc)   XCENC  =       100.79950525
  PAW double counting   =      1892.45487195    -1898.91126114
  entropy T*S    EENTRO =        -0.00000000
  eigenvalues    EBANDS =      -359.94607318
  atomic energy  EATOM  =      1456.71428276
  Solvation  Ecorr_sol  =         0.00000000
  ---------------------------------------------------
  free energy    TOTEN  =       -31.17394611 eV

  energy without entropy =      -31.17394611  energy(sigma->0) =      -31.17394611


--------------------------------------------------------------------------------------------------------




--------------------------------------- Iteration      1(  19)  ---------------------------------------


    POTLOK:  cpu time    0.8375: real time    0.8437
    SETDIJ:  cpu time    0.0100: real time    0.0101
    EDDIAG:  cpu time    0.1685: real time    0.1693
  RMM-DIIS:  cpu time    0.5476: real time    0.7728
    ORTHCH:  cpu time    0.0092: real time    0.0093
       DOS:  cpu time    0.0002: real time    0.0002
    CHARGE:  cpu time    0.1039: real time    0.1044
    MIXING:  cpu time    0.0345: real time    0.0347
    --------------------------------------------
      LOOP:  cpu time    1.7115: real time    1.9446

 eigenvalue-minimisations  :    88
 total energy-change (2. order) :-0.1943676E-01  (-0.5500290E-04)
 number of electron      22.9999996 magnetization       1.1248516
 augmentation part        1.9597735 magnetization       0.3635855

 DIPCOR: dipole corrections for dipol
 direction  3 min pos   269,
 dipolmoment           0.000000      0.000000     -0.425511 electrons x Angstroem
 Tr[quadrupol]      -467.175867

 energy correction for charged system         0.000000 eV
 dipol+quadrupol energy correction           -0.009416 eV
 added-field ion interaction          6.927341 eV  (added to PSCEN)


 Broyden mixing:
  rms(total) = 0.62044E-02    rms(broyden)= 0.62041E-02
  rms(prec ) = 0.63186E-02
  weight for this iteration     100.00

 eigenvalues of (default mixing * dielectric matrix)
  average eigenvalue GAMMA=   1.9922
 11.4006  4.0742  2.3918  1.5889  1.3927  0.9985  0.9985  1.1047  0.5588  0.5588
  0.8316  0.7248  0.6189  0.6479

 Free energy of the ion-electron system (eV)
  ---------------------------------------------------
  alpha Z        PSCENC =         8.14008840
  Ewald energy   TEWEN  =      1676.89251001
  -Hartree energ DENC   =     -2906.96965346
  -exchange      EXHF   =         0.00000000
  -V(xc)+E(xc)   XCENC  =       100.77438397
  PAW double counting   =      1893.22465516    -1899.68063131
  entropy T*S    EENTRO =        -0.00000000
  eigenvalues    EBANDS =      -360.28901840
  atomic energy  EATOM  =      1456.71428276
  Solvation  Ecorr_sol  =         0.00000000
  ---------------------------------------------------
  free energy    TOTEN  =       -31.19338287 eV

  energy without entropy =      -31.19338287  energy(sigma->0) =      -31.19338287


--------------------------------------------------------------------------------------------------------




--------------------------------------- Iteration      1(  20)  ---------------------------------------


    POTLOK:  cpu time    0.8415: real time    0.8480
    SETDIJ:  cpu time    0.0148: real time    0.0149
    EDDIAG:  cpu time    0.1676: real time    0.1685
  RMM-DIIS:  cpu time    0.7514: real time    0.7551
    ORTHCH:  cpu time    0.0094: real time    0.0095
       DOS:  cpu time    0.0002: real time    0.0002
    CHARGE:  cpu time    0.1057: real time    0.1063
    MIXING:  cpu time    0.0334: real time    0.0336
    --------------------------------------------
      LOOP:  cpu time    1.9242: real time    1.9361

 eigenvalue-minimisations  :    91
 total energy-change (2. order) :-0.1264110E-01  (-0.2629966E-04)
 number of electron      22.9999996 magnetization       1.0716177
 augmentation part        1.9595370 magnetization       0.3103696

 DIPCOR: dipole corrections for dipol
 direction  3 min pos   269,
 dipolmoment           0.000000      0.000000     -0.423330 electrons x Angstroem
 Tr[quadrupol]      -467.096117

 energy correction for charged system         0.000000 eV
 dipol+quadrupol energy correction           -0.009319 eV
 added-field ion interaction          6.891835 eV  (added to PSCEN)


 Broyden mixing:
  rms(total) = 0.42299E-02    rms(broyden)= 0.42297E-02
  rms(prec ) = 0.42792E-02
  weight for this iteration     100.00

 eigenvalues of (default mixing * dielectric matrix)
  average eigenvalue GAMMA=   2.0825
 11.6394  5.1565  2.7389  2.3240  1.3159  1.3159  1.0082  1.0082  0.5589  0.5589
  0.8322  0.8018  0.7186  0.6182  0.6422

 Free energy of the ion-electron system (eV)
  ---------------------------------------------------
  alpha Z        PSCENC =         8.10467811
  Ewald energy   TEWEN  =      1676.89251001
  -Hartree energ DENC   =     -2906.78140035
  -exchange      EXHF   =         0.00000000
  -V(xc)+E(xc)   XCENC  =       100.75980682
  PAW double counting   =      1893.55006102    -1900.00655490
  entropy T*S    EENTRO =        -0.00000000
  eigenvalues    EBANDS =      -360.43940745
  atomic energy  EATOM  =      1456.71428276
  Solvation  Ecorr_sol  =         0.00000000
  ---------------------------------------------------
  free energy    TOTEN  =       -31.20602397 eV

  energy without entropy =      -31.20602397  energy(sigma->0) =      -31.20602397


--------------------------------------------------------------------------------------------------------




--------------------------------------- Iteration      1(  21)  ---------------------------------------


    POTLOK:  cpu time    0.8235: real time    0.8300
    SETDIJ:  cpu time    0.0133: real time    0.0133
    EDDIAG:  cpu time    0.1472: real time    0.1479
  RMM-DIIS:  cpu time    0.5708: real time    0.5731
    ORTHCH:  cpu time    0.0102: real time    0.0103
       DOS:  cpu time    0.0002: real time    0.0001
    CHARGE:  cpu time    0.0879: real time    0.0882
    MIXING:  cpu time    0.0330: real time    0.0331
    --------------------------------------------
      LOOP:  cpu time    1.6861: real time    1.6961

 eigenvalue-minimisations  :    82
 total energy-change (2. order) :-0.5565480E-02  (-0.1643409E-04)
 number of electron      22.9999996 magnetization       1.0295452
 augmentation part        1.9593771 magnetization       0.2683058

 DIPCOR: dipole corrections for dipol
 direction  3 min pos   269,
 dipolmoment           0.000000      0.000000     -0.418775 electrons x Angstroem
 Tr[quadrupol]      -467.017305

 energy correction for charged system         0.000000 eV
 dipol+quadrupol energy correction           -0.009120 eV
 added-field ion interaction          6.817682 eV  (added to PSCEN)


 Broyden mixing:
  rms(total) = 0.34140E-02    rms(broyden)= 0.34128E-02
  rms(prec ) = 0.34915E-02
  weight for this iteration     100.00

 eigenvalues of (default mixing * dielectric matrix)
  average eigenvalue GAMMA=   2.1488
 11.8674  6.3652  3.0905  2.3377  1.4672  1.4672  1.0139  1.0139  0.5589  0.5589
  1.0288  0.8723  0.7756  0.7078  0.6200  0.6359

 Free energy of the ion-electron system (eV)
  ---------------------------------------------------
  alpha Z        PSCENC =         8.03072516
  Ewald energy   TEWEN  =      1676.89251001
  -Hartree energ DENC   =     -2906.68647926
  -exchange      EXHF   =         0.00000000
  -V(xc)+E(xc)   XCENC  =       100.75452626
  PAW double counting   =      1893.75743654    -1900.21441939
  entropy T*S    EENTRO =        -0.00000000
  eigenvalues    EBANDS =      -360.46017154
  atomic energy  EATOM  =      1456.71428276
  Solvation  Ecorr_sol  =         0.00000000
  ---------------------------------------------------
  free energy    TOTEN  =       -31.21158945 eV

  energy without entropy =      -31.21158945  energy(sigma->0) =      -31.21158945


--------------------------------------------------------------------------------------------------------




--------------------------------------- Iteration      1(  22)  ---------------------------------------


    POTLOK:  cpu time    0.7364: real time    0.7406
    SETDIJ:  cpu time    0.0102: real time    0.0102
    EDDIAG:  cpu time    0.1457: real time    0.1464
  RMM-DIIS:  cpu time    0.5859: real time    0.5888
    ORTHCH:  cpu time    0.0100: real time    0.0100
       DOS:  cpu time    0.0002: real time    0.0002
    CHARGE:  cpu time    0.0926: real time    0.0931
    MIXING:  cpu time    0.0346: real time    0.0347
    --------------------------------------------
      LOOP:  cpu time    1.6155: real time    1.6240

 eigenvalue-minimisations  :    80
 total energy-change (2. order) :-0.4505904E-02  (-0.1187525E-04)
 number of electron      22.9999996 magnetization       1.0082712
 augmentation part        1.9596622 magnetization       0.2471016

 DIPCOR: dipole corrections for dipol
 direction  3 min pos   269,
 dipolmoment           0.000000      0.000000     -0.411788 electrons x Angstroem
 Tr[quadrupol]      -466.955798

 energy correction for charged system         0.000000 eV
 dipol+quadrupol energy correction           -0.008818 eV
 added-field ion interaction          6.703925 eV  (added to PSCEN)


 Broyden mixing:
  rms(total) = 0.14259E-02    rms(broyden)= 0.14254E-02
  rms(prec ) = 0.14948E-02
  weight for this iteration     100.00

 eigenvalues of (default mixing * dielectric matrix)
  average eigenvalue GAMMA=   2.3579
 12.8432  8.9609  3.6857  2.3627  2.1320  1.2874  1.2874  1.0145  1.0145  0.5589
  0.5589  0.8449  0.8449  0.7532  0.6856  0.6219  0.6272

 Free energy of the ion-electron system (eV)
  ---------------------------------------------------
  alpha Z        PSCENC =         7.91727000
  Ewald energy   TEWEN  =      1676.89251001
  -Hartree energ DENC   =     -2906.64096501
  -exchange      EXHF   =         0.00000000
  -V(xc)+E(xc)   XCENC  =       100.74908870
  PAW double counting   =      1893.39557271    -1899.85218248
  entropy T*S    EENTRO =        -0.00000000
  eigenvalues    EBANDS =      -360.39167205
  atomic energy  EATOM  =      1456.71428276
  Solvation  Ecorr_sol  =         0.00000000
  ---------------------------------------------------
  free energy    TOTEN  =       -31.21609535 eV

  energy without entropy =      -31.21609535  energy(sigma->0) =      -31.21609535


--------------------------------------------------------------------------------------------------------




--------------------------------------- Iteration      1(  23)  ---------------------------------------


    POTLOK:  cpu time    0.7595: real time    0.7642
    SETDIJ:  cpu time    0.0138: real time    0.0139
    EDDIAG:  cpu time    0.1449: real time    0.1456
  RMM-DIIS:  cpu time    0.5409: real time    0.5435
    ORTHCH:  cpu time    0.0093: real time    0.0093
       DOS:  cpu time    0.0002: real time    0.0002
    CHARGE:  cpu time    0.0896: real time    0.0900
    MIXING:  cpu time    0.0336: real time    0.0338
    --------------------------------------------
      LOOP:  cpu time    1.5919: real time    1.6004

 eigenvalue-minimisations  :    76
 total energy-change (2. order) :-0.3036092E-02  (-0.4266533E-05)
 number of electron      22.9999996 magnetization       1.0042687
 augmentation part        1.9597045 magnetization       0.2431303

 DIPCOR: dipole corrections for dipol
 direction  3 min pos   269,
 dipolmoment           0.000000      0.000000     -0.406955 electrons x Angstroem
 Tr[quadrupol]      -466.926646

 energy correction for charged system         0.000000 eV
 dipol+quadrupol energy correction           -0.008612 eV
 added-field ion interaction          6.625254 eV  (added to PSCEN)


 Broyden mixing:
  rms(total) = 0.82687E-03    rms(broyden)= 0.82594E-03
  rms(prec ) = 0.91821E-03
  weight for this iteration     100.00

 eigenvalues of (default mixing * dielectric matrix)
  average eigenvalue GAMMA=   2.3587
 13.3796  9.5483  3.8280  2.4203  2.0639  1.3705  1.3232  1.0174  1.0174  0.5589
  0.5589  0.9470  0.9470  0.8120  0.7352  0.6808  0.6194  0.6282

 Free energy of the ion-electron system (eV)
  ---------------------------------------------------
  alpha Z        PSCENC =         7.83880406
  Ewald energy   TEWEN  =      1676.89251001
  -Hartree energ DENC   =     -2906.64874929
  -exchange      EXHF   =         0.00000000
  -V(xc)+E(xc)   XCENC  =       100.74660697
  PAW double counting   =      1893.15242606    -1899.60911222
  entropy T*S    EENTRO =        -0.00000000
  eigenvalues    EBANDS =      -360.30589980
[...]

 eigenvalue-minimisations  :    57
 total energy-change (2. order) :-0.8914766E-04  (-0.3764968E-06)
 number of electron      22.9999996 magnetization       1.0001688
 augmentation part        1.9596041 magnetization       0.2390617

 DIPCOR: dipole corrections for dipol
 direction  3 min pos   269,
 dipolmoment           0.000000      0.000000     -0.401982 electrons x Angstroem
 Tr[quadrupol]      -466.934612

 energy correction for charged system         0.000000 eV
 dipol+quadrupol energy correction           -0.008403 eV
 added-field ion interaction          6.544287 eV  (added to PSCEN)


 Broyden mixing:
  rms(total) = 0.74389E-04    rms(broyden)= 0.74337E-04
  rms(prec ) = 0.91530E-04
  weight for this iteration     100.00

 eigenvalues of (default mixing * dielectric matrix)
  average eigenvalue GAMMA=   2.2595
 13.9579  9.9532  4.4359  3.4489  2.3742  2.1583  1.5344  1.5344  1.2422  1.2422
  1.0235  1.0235  1.0905  0.5589  0.5589  0.8885  0.8885  0.7719  0.7202  0.6775
  0.6408  0.6177  0.6253

 Free energy of the ion-electron system (eV)
  ---------------------------------------------------
  alpha Z        PSCENC =         7.75804651
  Ewald energy   TEWEN  =      1676.89251001
  -Hartree energ DENC   =     -2906.73671934
  -exchange      EXHF   =         0.00000000
  -V(xc)+E(xc)   XCENC  =       100.74623392
  PAW double counting   =      1893.22819783    -1899.68508262
  entropy T*S    EENTRO =        -0.00000000
  eigenvalues    EBANDS =      -360.13880131
  atomic energy  EATOM  =      1456.71428276
  Solvation  Ecorr_sol  =         0.00000000
  ---------------------------------------------------
  free energy    TOTEN  =       -31.22133224 eV

  energy without entropy =      -31.22133224  energy(sigma->0) =      -31.22133224


--------------------------------------------------------------------------------------------------------




--------------------------------------- Iteration      1(  29)  ---------------------------------------


    POTLOK:  cpu time    0.7355: real time    0.7388
    SETDIJ:  cpu time    0.0128: real time    0.0128
    EDDIAG:  cpu time    0.1457: real time    0.1463
  RMM-DIIS:  cpu time    0.4625: real time    0.4644
    ORTHCH:  cpu time    0.0100: real time    0.0100
       DOS:  cpu time    0.0002: real time    0.0002
    CHARGE:  cpu time    0.0882: real time    0.0886
    MIXING:  cpu time    0.0382: real time    0.0384
    --------------------------------------------
      LOOP:  cpu time    1.4933: real time    1.9228

 eigenvalue-minimisations  :    55
 total energy-change (2. order) :-0.1801659E-04  (-0.1359726E-06)
 number of electron      22.9999996 magnetization       1.0001015
 augmentation part        1.9595987 magnetization       0.2389930

 DIPCOR: dipole corrections for dipol
 direction  3 min pos   269,
 dipolmoment           0.000000      0.000000     -0.402081 electrons x Angstroem
 Tr[quadrupol]      -466.935962

 energy correction for charged system         0.000000 eV
 dipol+quadrupol energy correction           -0.008407 eV
 added-field ion interaction          6.545898 eV  (added to PSCEN)


 Broyden mixing:
  rms(total) = 0.51133E-04    rms(broyden)= 0.51084E-04
  rms(prec ) = 0.66720E-04
  weight for this iteration     100.00

 eigenvalues of (default mixing * dielectric matrix)
  average eigenvalue GAMMA=   2.2396
 13.9649  9.9600  4.6999  3.6346  2.4294  2.0750  1.5037  1.5037  1.5964  1.3552
  1.0244  1.0244  1.1864  0.5589  0.5589  0.9196  0.9196  0.8111  0.7581  0.7215
  0.6713  0.6167  0.6299  0.6269

 Free energy of the ion-electron system (eV)
  ---------------------------------------------------
  alpha Z        PSCENC =         7.75965325
  Ewald energy   TEWEN  =      1676.89251001
  -Hartree energ DENC   =     -2906.73964373
  -exchange      EXHF   =         0.00000000
  -V(xc)+E(xc)   XCENC  =       100.74628661
  PAW double counting   =      1893.22743129    -1899.68433129
  entropy T*S    EENTRO =        -0.00000000
  eigenvalues    EBANDS =      -360.13753917
  atomic energy  EATOM  =      1456.71428276
  Solvation  Ecorr_sol  =         0.00000000
  ---------------------------------------------------
  free energy    TOTEN  =       -31.22135025 eV

  energy without entropy =      -31.22135025  energy(sigma->0) =      -31.22135025


--------------------------------------------------------------------------------------------------------




--------------------------------------- Iteration      1(  30)  ---------------------------------------


    POTLOK:  cpu time    0.7451: real time    1.1729
    SETDIJ:  cpu time    0.0112: real time    0.0112
    EDDIAG:  cpu time    0.1456: real time    0.1462
  RMM-DIIS:  cpu time    0.4321: real time    0.4339
    ORTHCH:  cpu time    0.0099: real time    0.0099
       DOS:  cpu time    0.0002: real time    0.0002
    CHARGE:  cpu time    0.0892: real time    0.0896
    MIXING:  cpu time    0.0402: real time    0.0403
    --------------------------------------------
      LOOP:  cpu time    1.4732: real time    1.4809

 eigenvalue-minimisations  :    50
 total energy-change (2. order) :-0.1315572E-04  (-0.6897594E-07)
 number of electron      22.9999996 magnetization       1.0000457
 augmentation part        1.9595952 magnetization       0.2389374

 DIPCOR: dipole corrections for dipol
 direction  3 min pos   269,
 dipolmoment           0.000000      0.000000     -0.402357 electrons x Angstroem
 Tr[quadrupol]      -466.938012

 energy correction for charged system         0.000000 eV
 dipol+quadrupol energy correction           -0.008419 eV
 added-field ion interaction          6.550387 eV  (added to PSCEN)


 Broyden mixing:
  rms(total) = 0.28125E-04    rms(broyden)= 0.28121E-04
  rms(prec ) = 0.40925E-04
  weight for this iteration     100.00

 eigenvalues of (default mixing * dielectric matrix)
  average eigenvalue GAMMA=   2.2483
 13.9749  9.9649  5.2230  3.8283  2.5762  2.2263  1.9785  1.4928  1.4928  1.4239
  1.0234  1.0234  1.1980  0.5589  0.5589  1.0175  1.0175  0.8711  0.7799  0.7300
  0.7058  0.6686  0.6164  0.6278  0.6278

 Free energy of the ion-electron system (eV)
  ---------------------------------------------------
  alpha Z        PSCENC =         7.76413101
  Ewald energy   TEWEN  =      1676.89251001
  -Hartree energ DENC   =     -2906.74165115
  -exchange      EXHF   =         0.00000000
  -V(xc)+E(xc)   XCENC  =       100.74629477
  PAW double counting   =      1893.22264362    -1899.67953906
  entropy T*S    EENTRO =        -0.00000000
  eigenvalues    EBANDS =      -360.14003536
  atomic energy  EATOM  =      1456.71428276
  Solvation  Ecorr_sol  =         0.00000000
  ---------------------------------------------------
  free energy    TOTEN  =       -31.22136341 eV

  energy without entropy =      -31.22136341  energy(sigma->0) =      -31.22136341


--------------------------------------------------------------------------------------------------------




--------------------------------------- Iteration      1(  31)  ---------------------------------------


    POTLOK:  cpu time    0.7536: real time    0.7572
    SETDIJ:  cpu time    0.0139: real time    0.0141
    EDDIAG:  cpu time    0.1404: real time    0.1409
  RMM-DIIS:  cpu time    0.4696: real time    0.4719
    ORTHCH:  cpu time    0.0093: real time    0.0094
       DOS:  cpu time    0.0001: real time    0.0001
    --------------------------------------------
      LOOP:  cpu time    1.3870: real time    1.3937

 eigenvalue-minimisations  :    51
 total energy-change (2. order) :-0.6584547E-05  (-0.5222383E-07)
 number of electron      22.9999996 magnetization       1.0000457
 augmentation part        1.9595952 magnetization       0.2389374

 DIPCOR: dipole corrections for dipol
 direction  3 min pos   269,
 dipolmoment           0.000000      0.000000     -0.402635 electrons x Angstroem
 Tr[quadrupol]      -466.939842

 energy correction for charged system         0.000000 eV
 dipol+quadrupol energy correction           -0.008430 eV
 added-field ion interaction          6.554916 eV  (added to PSCEN)


 Free energy of the ion-electron system (eV)
  ---------------------------------------------------
  alpha Z        PSCENC =         7.76864816
  Ewald energy   TEWEN  =      1676.89251001
  -Hartree energ DENC   =     -2906.74263989
  -exchange      EXHF   =         0.00000000
  -V(xc)+E(xc)   XCENC  =       100.74627720
  PAW double counting   =      1893.21620234    -1899.67308835
  entropy T*S    EENTRO =        -0.00000000
  eigenvalues    EBANDS =      -360.14356222
  atomic energy  EATOM  =      1456.71428276
  Solvation  Ecorr_sol  =         0.00000000
  ---------------------------------------------------
  free energy    TOTEN  =       -31.22136999 eV

  energy without entropy =      -31.22136999  energy(sigma->0) =      -31.22136999


--------------------------------------------------------------------------------------------------------




 average (electrostatic) potential at core
  the test charge radii are     0.6991  0.7215  0.5201
  (the norm of the test charge is              1.0000)
       1 -63.9730       2 -83.0760       3 -82.3009       4 -82.2347       5 -46.6203
 
 
 
 E-fermi :  -8.2391     XC(G=0):  -0.5585     alpha+bet :  0.0820


 spin component 1

 k-point     1 :       0.0000    0.0000    0.0000
  band No.  band energies     occupation 
      1     -29.7734      1.00000
      2     -26.9537      1.00000
      3     -26.6400      1.00000
      4     -16.7113      1.00000
      5     -13.7109      1.00000
      6     -12.9452      1.00000
      7     -12.7036      1.00000
      8     -11.2048      1.00000
      9      -9.3989      1.00000
     10      -9.1019      1.00000
     11      -8.8027      1.00000
     12      -8.6486      1.00000
     13      -1.6131      0.00000
     14      -1.2853      0.00000
     15      -0.2567      0.00000
     16       0.0906      0.00000
     17       0.5062      0.00000
     18       0.7408      0.00000
     19       0.8558      0.00000
     20       1.4617      0.00000

 spin component 2

 k-point     1 :       0.0000    0.0000    0.0000
  band No.  band energies     occupation 
      1     -29.5277      1.00000
      2     -26.5825      1.00000
      3     -25.9731      1.00000
      4     -16.5922      1.00000
      5     -13.2574      1.00000
      6     -12.6223      1.00000
      7     -12.5447      1.00000
      8     -10.8574      1.00000
      9      -8.9728      1.00000
     10      -8.3292      1.00000
     11      -8.2893      1.00000
     12      -7.2450      0.00000
     13      -1.5970      0.00000
     14      -1.2125      0.00000
     15      -0.2774      0.00000
     16       0.0985      0.00000
     17       0.5543      0.00000
     18       0.7778      0.00000
     19       0.8658      0.00000
     20       1.4885      0.00000


--------------------------------------------------------------------------------------------------------


 soft charge-density along one line, spin component           1
         0         1         2         3         4         5         6         7         8         9
 total charge-density along one line
 
 soft charge-density along one line, spin component           2
         0         1         2         3         4         5         6         7         8         9
 total charge-density along one line
 
 pseudopotential strength for first ion, spin component:           1
 10.550  14.038  -0.000   0.002  -0.000   0.000  -0.007   0.000
 14.038  18.678  -0.000   0.003  -0.000   0.000  -0.009   0.000
 -0.000  -0.000  -4.664   0.000  -0.008   9.129  -0.000   0.012
  0.002   0.003   0.000  -4.663   0.000  -0.000   9.130  -0.001
 -0.000  -0.000  -0.008   0.000  -4.654   0.012  -0.001   9.115
  0.000   0.000   9.129  -0.000   0.012 -20.027   0.001  -0.017
 -0.007  -0.009  -0.000   9.130  -0.001   0.001 -20.030   0.001
  0.000   0.000   0.012  -0.001   9.115  -0.017   0.001 -20.007
 pseudopotential strength for first ion, spin component:           2
 10.561  14.052  -0.000   0.002  -0.000   0.000  -0.004   0.000
 14.052  18.697  -0.000   0.002  -0.000   0.000  -0.005   0.000
 -0.000  -0.000  -4.667   0.000  -0.007   9.132  -0.000   0.011
  0.002   0.002   0.000  -4.666   0.000  -0.000   9.132  -0.001
 -0.000  -0.000  -0.007   0.000  -4.658   0.011  -0.001   9.119
  0.000   0.000   9.132  -0.000   0.011 -20.026   0.001  -0.014
 -0.004  -0.005  -0.000   9.132  -0.001   0.001 -20.028   0.001
  0.000   0.000   0.011  -0.001   9.119  -0.014   0.001 -20.009
 total augmentation occupancy for first ion, spin component:           1
  9.261  -4.566  -0.018  -0.084  -0.005  -0.004  -0.017  -0.001
 -4.566   2.452   0.012   0.016   0.005   0.003   0.010   0.001
 -0.018   0.012   1.751   0.010   0.354   0.180   0.001   0.063
 -0.084   0.016   0.010   1.697  -0.013   0.001   0.181  -0.003
 -0.005   0.005   0.354  -0.013   1.324   0.063  -0.003   0.104
 -0.004   0.003   0.180   0.001   0.063   0.024   0.000   0.011
 -0.017   0.010   0.001   0.181  -0.003   0.000   0.023  -0.001
 -0.001   0.001   0.063  -0.003   0.104   0.011  -0.001   0.010
 total augmentation occupancy for first ion, spin component:           2
  0.017  -0.017  -0.002  -0.005  -0.001  -0.000  -0.002  -0.000
 -0.017   0.010   0.002   0.011   0.000   0.000   0.002   0.000
 -0.002   0.002  -0.016   0.000   0.004   0.001   0.000   0.000
 -0.005   0.011   0.000  -0.013  -0.000   0.000   0.001   0.000
 -0.001   0.000   0.004  -0.000  -0.021   0.000   0.000   0.000
 -0.000   0.000   0.001   0.000   0.000   0.000   0.000   0.000
 -0.002   0.002   0.000   0.001   0.000   0.000   0.000   0.000
 -0.000   0.000   0.000   0.000   0.000   0.000   0.000   0.000


------------------------ aborting loop because EDIFF is reached ----------------------------------------


    CHARGE:  cpu time    0.0993: real time    0.0999
    FORLOC:  cpu time    0.0313: real time    0.0315
    FORNL :  cpu time    0.2493: real time    0.2506
    STRESS:  cpu time    0.7977: real time    0.8015
    FORCOR:  cpu time    0.7759: real time    0.7797
    FORHAR:  cpu time    0.1048: real time    0.1053
    MIXING:  cpu time    0.0378: real time    0.0380
    OFIELD:  cpu time    0.0001: real time    0.0001

  FORCE on cell =-STRESS in cart. coord.  units (eV):
  Direction    XX          YY          ZZ          XY          YZ          ZX
  --------------------------------------------------------------------------------------
  Alpha Z     1.22216     1.22216     1.22216
  Ewald    1139.80165  1598.37550 -1061.28475   375.18740    45.21962     0.61348
  Hartree  1684.00736  1933.07912  -710.34363   205.78206    13.50265    -6.29368
  E(xc)    -107.77947  -106.76806  -106.94859     0.81376     0.13633     0.03235
  Local   -3146.15289 -3816.28276  1481.16264  -551.11033   -50.09374     8.75390
  n-local   -77.10492   -78.05394   -75.64880    -0.75137     0.46480     0.21325
  augment    20.38686    18.23099    18.26224    -1.72242    -0.55837    -0.19842
  Kinetic   484.67252   447.34157   455.00162   -29.75199    -8.81563    -3.24721
  Fock        0.00000     0.00000     0.00000     0.00000     0.00000     0.00000
  -------------------------------------------------------------------------------------
  Total      -0.94672    -2.85542     1.42288    -1.55288    -0.14434    -0.12633
  in kB      -0.87182    -2.62951     1.31031    -1.43002    -0.13292    -0.11634
  external pressure =       -0.73 kB  Pullay stress =        0.00 kB


 VOLUME and BASIS-vectors are now :
 -----------------------------------------------------------------------------
  energy-cutoff  :      544.00
  volume of cell :     1739.83
      direct lattice vectors                 reciprocal lattice vectors
     8.315596000  0.000000000  0.000000000     0.120255962 -0.069429620  0.000000000
     4.157788000  7.201520000  0.000000000     0.000000000  0.138859574  0.000000000
     0.000000000  0.000000000 29.052834000     0.000000000  0.000000000  0.034420050

  length of vectors
     8.315596000  8.315593266 29.052834000     0.138859528  0.138859574  0.034420050


 FORCES acting on ions
    electron-ion (+dipol)            ewald-force                    non-local-force                 convergence-correction
 -----------------------------------------------------------------------------------------------
   -.153E+00 0.374E+00 0.249E+02   0.253E+00 -.261E+00 -.266E+02   -.260E-01 0.285E-01 0.222E+01   0.132E-03 0.240E-03 0.308E-03
   0.304E+02 0.398E+02 -.341E+03   -.483E+02 -.717E+02 0.370E+03   0.181E+02 0.322E+02 -.276E+02   -.324E-04 -.105E-03 0.607E-03
   -.141E+03 -.241E+03 0.189E+03   0.164E+03 0.280E+03 -.212E+03   -.235E+02 -.402E+02 0.226E+02   -.148E-03 -.242E-03 0.484E-03
   0.135E+03 0.248E+03 0.185E+03   -.157E+03 -.288E+03 -.207E+03   0.229E+02 0.417E+02 0.220E+02   0.126E-03 0.230E-03 0.492E-03
   -.379E+02 -.748E+02 -.731E+02   0.410E+02 0.807E+02 0.760E+02   -.330E+01 -.637E+01 -.318E+01   -.630E-05 -.215E-04 0.909E-04
 -----------------------------------------------------------------------------------------------
   -.141E+02 -.274E+02 -.160E+02   -.355E-13 0.568E-13 0.284E-13   0.141E+02 0.274E+02 0.160E+02   0.712E-04 0.101E-03 0.198E-02
 
 
 POSITION                                       TOTAL-FORCE (eV/Angst)
 -----------------------------------------------------------------------------------
      4.83443      3.62087      9.52423         0.074190      0.141314      0.477242
      4.78443      3.60462     10.85812         0.163251      0.387540      1.003371
      5.41541      4.61604      8.97104        -0.700269     -1.262798     -0.578558
      4.28156      2.61026      8.97642         0.675904      1.158758     -0.621750
      5.20988      4.42164     11.22717        -0.213077     -0.424814     -0.280305
 -----------------------------------------------------------------------------------
    total drift:                                0.000762      0.001549     -0.001287


--------------------------------------------------------------------------------------------------------



  FREE ENERGIE OF THE ION-ELECTRON SYSTEM (eV)
  ---------------------------------------------------
  free  energy   TOTEN  =       -31.22136999 eV

  energy  without entropy=      -31.22136999  energy(sigma->0) =      -31.22136999
 


--------------------------------------------------------------------------------------------------------


    POTLOK:  cpu time    0.8385: real time    0.8427


--------------------------------------------------------------------------------------------------------


 stress matrix after NEB project (eV)
     -0.94672     -1.55288     -0.12633
     -1.55288     -2.85542     -0.14434
     -0.12633     -0.14434      1.42288
  FORCES: max atom, RMS     1.555559    1.126692
  FORCE total and by dimension    2.519359    1.262798
  Stress total and by dimension    3.996346    2.855423
     LOOP+:  cpu time   52.8636: real time   54.3178
    4ORBIT:  cpu time    0.0000: real time    0.0000

 total amount of memory used by VASP MPI-rank0   113766. kBytes
=======================================================================

   base      :      30000. kBytes
   nonlr-proj:        628. kBytes
   fftplans  :      22218. kBytes
   grid      :      58900. kBytes
   one-center:         12. kBytes
   wavefun   :       2008. kBytes
 
  
  
 General timing and accounting informations for this job:
 ========================================================
  
                  Total CPU time used (sec):       54.707
                            User time (sec):       53.059
                          System time (sec):        1.648
                         Elapsed time (sec):       58.033
  
                   Maximum memory used (kb):      254424.
                   Average memory used (kb):           0.
  
                          Minor page faults:       290972
                          Major page faults:         1601
                 Voluntary context switches:         3798
