 vasp.5.4.4.18Apr17-6-g9f103f2a35 (build Sep 01 2024 22:12:51) complex          
  
 executed on             LinuxIFC date 2024.09.23  16:44:14
 running on   16 total cores
 distrk:  each k-point on   16 cores,    1 groups
 distr:  one band on NCORES_PER_BAND=   4 cores,    4 groups


--------------------------------------------------------------------------------------------------------


 INCAR:
 POTCAR:    PAW_PBE S 06Sep2000                   
 POTCAR:    PAW_PBE O 08Apr2002                   
 POTCAR:    PAW_PBE H 15Jun2001                   
 POTCAR:    PAW_PBE S 06Sep2000                   
   SHA256 =  0fc7481fb0695f01bdc6462160264c5c84044ae9ec85a907d398b887a2bc3132 S/
   COPYR  = (c) Copyright 06Sep2000 Georg Kresse                                
   COPYR  = This file is part of the software VASP. Any use, copying, and all ot
   COPYR  = If you do not have a valid VASP license, you may not use, copy or di
   VRHFIN =S : s2p4                                                             
   LEXCH  = PE                                                                  
   EATOM  =   276.8230 eV,   20.3459 Ry                                         
                                                                                
   TITEL  = PAW_PBE S 06Sep2000                                                 
   LULTRA =        F    use ultrasoft PP ?                                      
   IUNSCR =        1    unscreen: 0-lin 1-nonlin 2-no                           
   RPACOR =    1.500    partial core radius                                     
   POMASS =   32.066; ZVAL   =    6.000    mass and valenz                      
   RCORE  =    1.900    outmost cutoff radius                                   
   RWIGS  =    2.200; RWIGS  =    1.164    wigner-seitz radius (au A)           
   ENMAX  =  258.689; ENMIN  =  194.016 eV                                      
   ICORE  =        2    local potential                                         
   LCOR   =        T    correct aug charges                                     
   LPAW   =        T    paw PP                                                  
   EAUG   =  335.092                                                            
   DEXC   =    0.000                                                            
   RMAX   =    1.942    core radius for proj-oper                               
   RAUG   =    1.300    factor for augmentation sphere                          
   RDEP   =    1.954    radius for radial grids                                 
   RDEPT  =    1.744    core radius for aug-charge                              
                                                                                
   Atomic configuration                                                         
    6 entries                                                                   
     n  l   j            E        occ.                                          
     1  0  0.50     -2405.8406   2.0000                                         
     2  0  0.50      -211.7007   2.0000                                         
     2  1  1.50      -156.4958   6.0000                                         
     3  0  0.50       -17.2562   2.0000                                         
     3  1  0.50        -7.0085   4.0000                                         
     3  2  1.50        -6.8029   0.0000                                         
   Description                                                                  
     l       E           TYP  RCUT    TYP  RCUT                                 
     0    -17.2561641     23  1.900                                             
     0    -15.8743224     23  1.900                                             
     1     -7.0085400     23  1.900                                             
     1     -2.7779785     23  1.900                                             
     2     -6.8029130     23  1.900                                             
  local pseudopotential read in
  partial core-charges read in
  partial kinetic energy density read in
  atomic valenz-charges read in
  non local Contribution for L=           0  read in
    real space projection operators read in
  non local Contribution for L=           0  read in
    real space projection operators read in
  non local Contribution for L=           1  read in
    real space projection operators read in
  non local Contribution for L=           1  read in
    real space projection operators read in
    PAW grid and wavefunctions read in
 
   number of l-projection  operators is LMAX  =           4
   number of lm-projection operators is LMMAX =           8
 
 POTCAR:    PAW_PBE O 08Apr2002                   
   SHA256 =  818f92134a0a090dccd8ba1447fa70422a3b330e708bb4f08108d8ae51209ddf O/
   COPYR  = (c) Copyright 08Apr2002 Georg Kresse                                
   COPYR  = This file is part of the software VASP. Any use, copying, and all ot
   COPYR  = If you do not have a valid VASP license, you may not use, copy or di
   VRHFIN =O: s2p4                                                              
   LEXCH  = PE                                                                  
   EATOM  =   432.3788 eV,   31.7789 Ry                                         
                                                                                
   TITEL  = PAW_PBE O 08Apr2002                                                 
   LULTRA =        F    use ultrasoft PP ?                                      
   IUNSCR =        1    unscreen: 0-lin 1-nonlin 2-no                           
   RPACOR =    1.200    partial core radius                                     
   POMASS =   16.000; ZVAL   =    6.000    mass and valenz                      
   RCORE  =    1.520    outmost cutoff radius                                   
   RWIGS  =    1.550; RWIGS  =    0.820    wigner-seitz radius (au A)           
   ENMAX  =  400.000; ENMIN  =  300.000 eV                                      
   ICORE  =        2    local potential                                         
   LCOR   =        T    correct aug charges                                     
   LPAW   =        T    paw PP                                                  
   EAUG   =  605.392                                                            
   DEXC   =    0.000                                                            
   RMAX   =    1.553    core radius for proj-oper                               
   RAUG   =    1.300    factor for augmentation sphere                          
   RDEP   =    1.550    radius for radial grids                                 
   RDEPT  =    1.329    core radius for aug-charge                              
                                                                                
   Atomic configuration                                                         
    4 entries                                                                   
     n  l   j            E        occ.                                          
     1  0  0.50      -514.6923   2.0000                                         
     2  0  0.50       -23.9615   2.0000                                         
     2  1  0.50        -9.0305   4.0000                                         
     3  2  1.50        -9.5241   0.0000                                         
   Description                                                                  
     l       E           TYP  RCUT    TYP  RCUT                                 
     0    -23.9615318     23  1.200                                             
     0     -9.5240782     23  1.200                                             
     1     -9.0304911     23  1.520                                             
     1      8.1634956     23  1.520                                             
     2     -9.5240782      7  1.500                                             
  local pseudopotential read in
  partial core-charges read in
  partial kinetic energy density read in
  kinetic energy density of atom read in
  atomic valenz-charges read in
  non local Contribution for L=           0  read in
    real space projection operators read in
  non local Contribution for L=           0  read in
    real space projection operators read in
  non local Contribution for L=           1  read in
    real space projection operators read in
  non local Contribution for L=           1  read in
    real space projection operators read in
    PAW grid and wavefunctions read in
 
   number of l-projection  operators is LMAX  =           4
   number of lm-projection operators is LMMAX =           8
 
 POTCAR:    PAW_PBE H 15Jun2001                   
   SHA256 =  030f79b5d3ab3cf0e668861823c8fb652ff669f3e15e46930bd03bfd63a607b6 H/
   COPYR  = (c) Copyright 15Jun2001 Georg Kresse                                
   COPYR  = This file is part of the software VASP. Any use, copying, and all ot
   COPYR  = If you do not have a valid VASP license, you may not use, copy or di
   VRHFIN =H: ultrasoft test                                                    
   LEXCH  = PE                                                                  
   EATOM  =    12.4884 eV,    0.9179 Ry                                         
                                                                                
   TITEL  = PAW_PBE H 15Jun2001                                                 
   LULTRA =        F    use ultrasoft PP ?                                      
   IUNSCR =        0    unscreen: 0-lin 1-nonlin 2-no                           
   RPACOR =    0.000    partial core radius                                     
   POMASS =    1.000; ZVAL   =    1.000    mass and valenz                      
   RCORE  =    1.100    outmost cutoff radius                                   
   RWIGS  =    0.700; RWIGS  =    0.370    wigner-seitz radius (au A)           
   ENMAX  =  250.000; ENMIN  =  200.000 eV                                      
   RCLOC  =    0.701    cutoff for local pot                                    
   LCOR   =        T    correct aug charges                                     
   LPAW   =        T    paw PP                                                  
   EAUG   =  400.000                                                            
   RMAX   =    1.123    core radius for proj-oper                               
   RAUG   =    1.200    factor for augmentation sphere                          
   RDEP   =    1.112    radius for radial grids                                 
   RDEPT  =    0.926    core radius for aug-charge                              
                                                                                
   Atomic configuration                                                         
    2 entries                                                                   
     n  l   j            E        occ.                                          
     1  0  0.50        -6.4927   1.0000                                         
     2  1  0.50        -3.4015   0.0000                                         
   Description                                                                  
     l       E           TYP  RCUT    TYP  RCUT                                 
     0     -6.4927494     23  1.100                                             
     0      6.8029130     23  1.100                                             
     1     -4.0817478     23  1.100                                             
  local pseudopotential read in
  atomic valenz-charges read in
  non local Contribution for L=           0  read in
    real space projection operators read in
  non local Contribution for L=           0  read in
    real space projection operators read in
  non local Contribution for L=           1  read in
    real space projection operators read in
    PAW grid and wavefunctions read in
 
   number of l-projection  operators is LMAX  =           3
   number of lm-projection operators is LMMAX =           5
 

 ----------------------------------------------------------------------------- 
|                                                                             |
|  ADVICE TO THIS USER RUNNING 'VASP/VAMP'   (HEAR YOUR MASTER'S VOICE ...):  |
|                                                                             |
|      You have a (more or less) 'small supercell' and for smaller cells      |
|      it is recommended  to use the reciprocal-space projection scheme!      |
|      The real space optimization is not  efficient for small cells and it   |
|      is also less accurate ...                                              |
|      Therefore set LREAL=.FALSE. in the  INCAR file                         |
|                                                                             |
 ----------------------------------------------------------------------------- 

 Optimization of the real space projectors (new method)

 maximal supplied QI-value         = 19.84
 optimisation between [QCUT,QGAM] = [ 11.91, 23.81] = [ 39.69,158.76] Ry 
 Optimized for a Real-space Cutoff    1.22 Angstroem

   l    n(q)    QCUT    max X(q) W(low)/X(q) W(high)/X(q)  e(spline) 
   0      9    11.905   187.594    0.11E-03    0.12E-03    0.65E-07
   0      9    11.905   164.243    0.11E-03    0.12E-03    0.65E-07
   1      8    11.905    67.533    0.15E-03    0.59E-04    0.88E-07
   1      8    11.905    50.729    0.15E-03    0.59E-04    0.86E-07
 Optimization of the real space projectors (new method)

 maximal supplied QI-value         = 24.76
 optimisation between [QCUT,QGAM] = [ 11.88, 23.77] = [ 39.54,158.16] Ry 
 Optimized for a Real-space Cutoff    1.18 Angstroem

   l    n(q)    QCUT    max X(q) W(low)/X(q) W(high)/X(q)  e(spline) 
   0      8    11.883    20.381    0.77E-04    0.16E-03    0.31E-06
   0      8    11.883    15.268    0.85E-04    0.17E-03    0.34E-06
   1      8    11.883     5.964    0.17E-03    0.30E-04    0.33E-06
   1      8    11.883     5.382    0.15E-03    0.14E-04    0.29E-06
 Optimization of the real space projectors (new method)

 maximal supplied QI-value         = 34.20
 optimisation between [QCUT,QGAM] = [ 11.63, 23.60] = [ 37.87,155.98] Ry 
 Optimized for a Real-space Cutoff    1.18 Angstroem

   l    n(q)    QCUT    max X(q) W(low)/X(q) W(high)/X(q)  e(spline) 
   0      8    11.629    19.460    0.14E-03    0.39E-03    0.21E-06
   0      8    11.629    12.209    0.12E-03    0.36E-03    0.20E-06
   1      8    11.629     4.655    0.22E-03    0.17E-03    0.23E-06
  PAW_PBE S 06Sep2000                   :
 energy of atom  1       EATOM= -276.8230
 kinetic energy error for atom=    0.0012 (will be added to EATOM!!)
  PAW_PBE O 08Apr2002                   :
 energy of atom  2       EATOM= -432.3788
 kinetic energy error for atom=    0.0196 (will be added to EATOM!!)
  PAW_PBE H 15Jun2001                   :
 energy of atom  3       EATOM=  -12.4884
 kinetic energy error for atom=    0.0009 (will be added to EATOM!!)
 
 
 POSCAR:  S  O  H                                
  positions in cartesian coordinates
  No initial velocities read in
 exchange correlation table for  LEXCH =        8
   RHO(1)=    0.500       N(1)  =     2000
   RHO(2)=  100.500       N(2)  =     4000

 VTST: version 3.2, (02/03/18)

 CHAIN: initializing optimizer
 
 OPT: Using VASP Dynamics algorithm
 CHAIN: Read ICHAIN            0
 
 POSCAR:  S  O  H                                
  positions in cartesian coordinates
  No initial velocities read in
 


--------------------------------------------------------------------------------------------------------


 ion  position               nearest neighbor table
   1  0.629  0.355  0.316-   3 1.46   2 1.47   4 1.62
   2  0.501  0.549  0.328-   1 1.47
   3  0.592  0.213  0.335-   1 1.46
   4  0.827  0.316  0.337-   5 0.99   1 1.62
   5  0.896  0.190  0.350-   4 0.99
 

IMPORTANT INFORMATION: All symmetrisations will be switched off!
NOSYMM: (Re-)initialisation of all symmetry stuff for point group C_1.

 
 
 KPOINTS: K-Point Grid                            

Automatic generation of k-mesh.
Space group operators:
 irot       det(A)        alpha          n_x          n_y          n_z        tau_x        tau_y        tau_z
    1     1.000000     0.000000     1.000000     0.000000     0.000000     0.000000     0.000000     0.000000
 
 Subroutine IBZKPT returns following result:
 ===========================================
 
 Found      1 irreducible k-points:
 
 Following reciprocal coordinates:
            Coordinates               Weight
  0.000000  0.000000  0.000000      1.000000
 
 Following cartesian coordinates:
            Coordinates               Weight
  0.000000  0.000000  0.000000      1.000000
 


--------------------------------------------------------------------------------------------------------




 Dimension of arrays:
   k-points           NKPTS =      1   k-points in BZ     NKDIM =      1   number of bands    NBANDS=     20
   number of dos      NEDOS =    301   number of ions     NIONS =      5
   non local maximal  LDIM  =      4   non local SUM 2l+1 LMDIM =      8
   total plane-waves  NPLWV = 917504
   max r-space proj   IRMAX =   4054   max aug-charges    IRDMAX=  16812
   dimension x,y,z NGX =    64 NGY =   64 NGZ =  224
   dimension x,y,z NGXF=   128 NGYF=  128 NGZF=  448
   support grid    NGXF=   128 NGYF=  128 NGZF=  448
   ions per type =               1   3   1
   NGX,Y,Z   is equivalent  to a cutoff of  12.79, 12.79, 12.82 a.u.
   NGXF,Y,Z  is equivalent  to a cutoff of  25.59, 25.59, 25.64 a.u.

 SYSTEM =  DIPOLE RUNS                             
 POSCAR =   S  O  H                                

 Startparameter for this run:
   NWRITE =      2    write-flag & timer
   PREC   = accura    normal or accurate (medium, high low for compatibility)
   ISTART =      0    job   : 0-new  1-cont  2-samecut
   ICHARG =      2    charge: 1-file 2-atom 10-const
   ISPIN  =      2    spin polarized calculation?
   LNONCOLLINEAR =      F non collinear calculations
   LSORBIT =      F    spin-orbit coupling
   INIWAV =      1    electr: 0-lowe 1-rand  2-diag
   LASPH  =      F    aspherical Exc in radial PAW
   METAGGA=      F    non-selfconsistent MetaGGA calc.

 Electronic Relaxation 1
   ENCUT  =  544.0 eV  39.98 Ry    6.32 a.u.  15.81 15.81 55.25*2*pi/ulx,y,z
   ENINI  =  544.0     initial cutoff
   ENAUG  =  605.4 eV  augmentation charge cutoff
   NELM   =    400;   NELMIN=  2; NELMDL= -5     # of ELM steps 
   EDIFF  = 0.1E-04   stopping-criterion for ELM
   LREAL  =      T    real-space projection
   NLSPLINE    = F    spline interpolate recip. space projectors
   LCOMPAT=      F    compatible to vasp.4.4
   GGA_COMPAT  = T    GGA compatible to vasp.4.4-vasp.4.6
   LMAXPAW     = -100 max onsite density
   LMAXMIX     =    2 max onsite mixed and CHGCAR
   VOSKOWN=      0    Vosko Wilk Nusair interpolation
   ROPT   =   -0.00025  -0.00025  -0.00025
 Ionic relaxation
   EDIFFG = -.1E-01   stopping-criterion for IOM
   NSW    =      0    number of steps for IOM
   NBLOCK =      1;   KBLOCK =      1    inner block; outer block 
   IBRION =     -1    ionic relax: 0-MD 1-quasi-New 2-CG
   NFREE  =      0    steps in history (QN), initial steepest desc. (CG)
   ISIF   =      2    stress and relaxation
   IWAVPR =     10    prediction:  0-non 1-charg 2-wave 3-comb
   ISYM   =      0    0-nonsym 1-usesym 2-fastsym
   LCORR  =      T    Harris-Foulkes like correction to forces

   POTIM  = 0.5000    time-step for ionic-motion
   TEIN   =    0.0    initial temperature
   TEBEG  =    0.0;   TEEND  =   0.0 temperature during run
   SMASS  =  -3.00    Nose mass-parameter (am)
   estimated Nose-frequenzy (Omega)   =  0.10E-29 period in steps =****** mass=  -0.158E-26a.u.
   SCALEE = 1.0000    scale energy and forces
   NPACO  =    256;   APACO  = 16.0  distance and # of slots for P.C.
   PSTRESS=    0.0 pullay stress

  Mass of Ions in am
   POMASS =  32.07 16.00  1.00
  Ionic Valenz
   ZVAL   =   6.00  6.00  1.00
  Atomic Wigner-Seitz radii
   RWIGS  =  -1.00 -1.00 -1.00
  virtual crystal weights 
   VCA    =   1.00  1.00  1.00
   NELECT =      25.0000    total number of electrons
   NUPDOWN=      -1.0000    fix difference up-down

 DOS related values:
   EMIN   =  10.00;   EMAX   =-10.00  energy-range for DOS
   EFERMI =   0.00
   ISMEAR =     0;   SIGMA  =   0.00  broadening in eV -4-tet -1-fermi 0-gaus

 Electronic relaxation 2 (details)
   IALGO  =     68    algorithm
   LDIAG  =      T    sub-space diagonalisation (order eigenvalues)
   LSUBROT=      F    optimize rotation matrix (better conditioning)
   TURBO    =      0    0=normal 1=particle mesh
   IRESTART =      0    0=no restart 2=restart with 2 vectors
   NREBOOT  =      0    no. of reboots
   NMIN     =      0    reboot dimension
   EREF     =   0.00    reference energy to select bands
   IMIX   =      4    mixing-type and parameters
     AMIX     =   0.40;   BMIX     =  1.00
     AMIX_MAG =   1.60;   BMIX_MAG =  1.00
     AMIN     =   0.10
     WC   =   100.;   INIMIX=   1;  MIXPRE=   1;  MAXMIX= -45

 Intra band minimization:
   WEIMIN = 0.0000     energy-eigenvalue tresh-hold
   EBREAK =  0.13E-06  absolut break condition
   DEPER  =   0.30     relativ break condition  

   TIME   =   0.40     timestep for ELM

  volume/ion in A,a.u.               =     347.97      2348.19
  Fermi-wavevector in a.u.,A,eV,Ry     =   0.398003  0.752116  2.155248  0.158406
  Thomas-Fermi vector in A             =   1.345231
 
 Write flags
   LWAVE        =      F    write WAVECAR
   LDOWNSAMPLE  =      F    k-point downsampling of WAVECAR
   LCHARG       =      F    write CHGCAR
   LVTOT        =      F    write LOCPOT, total local potential
   LVHAR        =      F    write LOCPOT, Hartree potential only
   LELF         =      F    write electronic localiz. function (ELF)
   LORBIT       =      0    0 simple, 1 ext, 2 COOP (PROOUT), +10 PAW based schemes


 Dipole corrections
   LMONO  =      F    monopole corrections only (constant potential shift)
   LDIPOL =      T    correct potential (dipole corrections)
   IDIPOL =      3    1-x, 2-y, 3-z, 4-all directions 
   EPSILON=  1.0000000 bulk dielectric constant

 Exchange correlation treatment:
   GGA     =    PE    GGA type
   LEXCH   =     8    internal setting for exchange type
   VOSKOWN=      0    Vosko Wilk Nusair interpolation
   LHFCALC =     F    Hartree Fock is set to
   LHFONE  =     F    Hartree Fock one center treatment
   AEXX    =    0.0000 exact exchange contribution

 Linear response parameters
   LEPSILON=     F    determine dielectric tensor
   LRPA    =     F    only Hartree local field effects (RPA)
   LNABLA  =     F    use nabla operator in PAW spheres
   LVEL    =     F    velocity operator in full k-point grid
   LINTERFAST=   F  fast interpolation
   KINTER  =     0    interpolate to denser k-point grid
   CSHIFT  =0.1000    complex shift for real part using Kramers Kronig
   OMEGAMAX=  -1.0    maximum frequency
   DEG_THRESHOLD= 0.2000000E-02 threshold for treating states as degnerate
   RTIME   =   -0.100 relaxation time in fs
  (WPLASMAI=    0.000 imaginary part of plasma frequency in eV, 0.658/RTIME)
   DFIELD  = 0.0000000 0.0000000 0.0000000 field for delta impulse in time
 
 Orbital magnetization related:
   ORBITALMAG=     F  switch on orbital magnetization
   LCHIMAG   =     F  perturbation theory with respect to B field
   DQ        =  0.001000  dq finite difference perturbation B field
   LLRAUG    =     F  two centre corrections for induced B field



--------------------------------------------------------------------------------------------------------


 Static calculation
 charge density and potential will be updated during run
 spin polarized calculation
 RMM-DIIS sequential band-by-band and
  variant of blocked Davidson during initial phase
 perform sub-space diagonalisation
    before iterative eigenvector-optimisation
 modified Broyden-mixing scheme, WC =      100.0
 initial mixing is a Kerker type mixing with AMIX =  0.4000 and BMIX =      1.0000
 Hartree-type preconditioning will be used
 using additional bands            7
 real space projection scheme for non local part
 use partial core corrections
 calculate Harris-corrections to forces 
   (improved forces if not selfconsistent)
 use gradient corrections 
 use of overlap-Matrix (Vanderbilt PP)
 Gauss-broadening in eV      SIGMA  =   0.00


--------------------------------------------------------------------------------------------------------


  energy-cutoff  :      544.00
  volume of cell :     1739.83
      direct lattice vectors                 reciprocal lattice vectors
     8.315596000  0.000000000  0.000000000     0.120255962 -0.069429620  0.000000000
     4.157788000  7.201520000  0.000000000     0.000000000  0.138859574  0.000000000
     0.000000000  0.000000000 29.052834000     0.000000000  0.000000000  0.034420050

  length of vectors
     8.315596000  8.315593266 29.052834000     0.138859528  0.138859574  0.034420050


 
 k-points in units of 2pi/SCALE and weight: K-Point Grid                            
   0.00000000  0.00000000  0.00000000       1.000
 
 k-points in reciprocal lattice and weights: K-Point Grid                            
   0.00000000  0.00000000  0.00000000       1.000
 
 position of ions in fractional coordinates (direct lattice) 
   0.62928714  0.35506268  0.31615886
   0.50062969  0.54897549  0.32841103
   0.59198804  0.21342036  0.33468435
   0.82717047  0.31627143  0.33674381
   0.89601546  0.18956845  0.35026848
 
 position of ions in cartesian coordinates  (Angst):
   6.70917300  2.55699100  9.18531100
   6.44555800  3.95345800  9.54127100
   5.81009000  1.53695100  9.72352900
   8.19340500  2.27763500  9.78336200
   8.23908800  1.36518100 10.17629200
 


--------------------------------------------------------------------------------------------------------


 k-point  1 :   0.0000 0.0000 0.0000  plane waves:   50139

 maximum and minimum number of plane-waves per node :     12536    12533

 maximum number of plane-waves:     50139
 maximum index in each direction: 
   IXMAX=   15   IYMAX=   15   IZMAX=   55
   IXMIN=  -15   IYMIN=  -15   IZMIN=  -55


 real space projection operators:
  total allocation   :       1049.88 KBytes
  max/ min on nodes  :        264.06        260.34


 parallel 3D FFT for wavefunctions:
    minimum data exchange during FFTs selected (reduces bandwidth)
 parallel 3D FFT for charge:
    minimum data exchange during FFTs selected (reduces bandwidth)


 total amount of memory used by VASP MPI-rank0   113803. kBytes
=======================================================================

   base      :      30000. kBytes
   nonlr-proj:        665. kBytes
   fftplans  :      22218. kBytes
   grid      :      58900. kBytes
   one-center:         12. kBytes
   wavefun   :       2008. kBytes
 
     INWAV:  cpu time    0.0000: real time    0.0003
 Broyden mixing: mesh for mixing (old mesh)
   NGX = 31   NGY = 31   NGZ =111
  (NGX  =128   NGY  =128   NGZ  =448)
  gives a total of 106671 points

 initial charge density was supplied:
 charge density of overlapping atoms calculated
 number of electron      25.0000000 magnetization       5.0000000
 keeping initial charge density in first step


--------------------------------------------------------------------------------------------------------


 Maximum index for non-local projection operator          984
 Maximum index for augmentation-charges          894 (set IRDMAX)


--------------------------------------------------------------------------------------------------------


 First call to EWALD:  gamma=   0.147
 Maximum number of real-space cells 4x 4x 1
 Maximum number of reciprocal cells 2x 2x 6

    FEWALD:  cpu time    0.0015: real time    0.0015


--------------------------------------- Iteration      1(   1)  ---------------------------------------


    POTLOK:  cpu time    0.7486: real time    0.7546
    SETDIJ:  cpu time    0.0118: real time    0.0119
     EDDAV:  cpu time    0.8183: real time    0.8235
       DOS:  cpu time    0.0003: real time    0.0003
    --------------------------------------------
      LOOP:  cpu time    1.5790: real time    1.5903

 eigenvalue-minimisations  :   112
 total energy-change (2. order) : 0.2118510E+03  (-0.6665581E+03)
 number of electron      25.0000000 magnetization       5.0000000
 augmentation part       25.0000000 magnetization       5.0000000

 DIPCOR: dipole corrections for dipol
 direction  3 min pos   269,
 dipolmoment           0.000000      0.000000     -0.000152 electrons x Angstroem
 Tr[quadrupol]      -439.314195

 energy correction for charged system         0.000000 eV
 dipol+quadrupol energy correction           -0.000000 eV
 added-field ion interaction          0.002658 eV  (added to PSCEN)


 Free energy of the ion-electron system (eV)
  ---------------------------------------------------
  alpha Z        PSCENC =         1.39749574
  Ewald energy   TEWEN  =      1916.85549914
  -Hartree energ DENC   =     -3208.88284180
  -exchange      EXHF   =         0.00000000
  -V(xc)+E(xc)   XCENC  =        98.80514932
  PAW double counting   =      1258.41795416    -1260.60715795
  entropy T*S    EENTRO =        -0.00000000
  eigenvalues    EBANDS =      -180.52187644
  atomic energy  EATOM  =      1586.38675303
  Solvation  Ecorr_sol  =         0.00000000
  ---------------------------------------------------
  free energy    TOTEN  =       211.85097520 eV

  energy without entropy =      211.85097520  energy(sigma->0) =      211.85097520


--------------------------------------------------------------------------------------------------------




--------------------------------------- Iteration      1(   2)  ---------------------------------------


     EDDAV:  cpu time    1.0426: real time    1.0490
       DOS:  cpu time    0.0001: real time    0.0001
    --------------------------------------------
      LOOP:  cpu time    1.0427: real time    1.0491

 eigenvalue-minimisations  :   152
 total energy-change (2. order) :-0.1563296E+03  (-0.1530429E+03)
 number of electron      25.0000000 magnetization       5.0000000
 augmentation part       25.0000000 magnetization       5.0000000

 DIPCOR: dipole corrections for dipol
 direction  3 min pos   269,
 dipolmoment           0.000000      0.000000     -0.000152 electrons x Angstroem
 Tr[quadrupol]      -439.314195

 energy correction for charged system         0.000000 eV
 dipol+quadrupol energy correction           -0.000000 eV
 added-field ion interaction          0.002658 eV  (added to PSCEN)


 Free energy of the ion-electron system (eV)
  ---------------------------------------------------
  alpha Z        PSCENC =         1.39749574
  Ewald energy   TEWEN  =      1916.85549914
  -Hartree energ DENC   =     -3208.88284180
  -exchange      EXHF   =         0.00000000
  -V(xc)+E(xc)   XCENC  =        98.80514932
  PAW double counting   =      1258.41795416    -1260.60715795
  entropy T*S    EENTRO =        -0.00000000
  eigenvalues    EBANDS =      -336.85142753
  atomic energy  EATOM  =      1586.38675303
  Solvation  Ecorr_sol  =         0.00000000
  ---------------------------------------------------
  free energy    TOTEN  =        55.52142411 eV

  energy without entropy =       55.52142411  energy(sigma->0) =       55.52142411


--------------------------------------------------------------------------------------------------------




--------------------------------------- Iteration      1(   3)  ---------------------------------------


     EDDAV:  cpu time    0.7321: real time    0.7371
       DOS:  cpu time    0.0001: real time    0.0001
    --------------------------------------------
      LOOP:  cpu time    0.7323: real time    0.7373

 eigenvalue-minimisations  :   100
 total energy-change (2. order) :-0.7646151E+02  (-0.7622608E+02)
 number of electron      25.0000000 magnetization       5.0000000
 augmentation part       25.0000000 magnetization       5.0000000

 DIPCOR: dipole corrections for dipol
 direction  3 min pos   269,
 dipolmoment           0.000000      0.000000     -0.000152 electrons x Angstroem
 Tr[quadrupol]      -439.314195

 energy correction for charged system         0.000000 eV
 dipol+quadrupol energy correction           -0.000000 eV
 added-field ion interaction          0.002658 eV  (added to PSCEN)


 Free energy of the ion-electron system (eV)
  ---------------------------------------------------
  alpha Z        PSCENC =         1.39749574
  Ewald energy   TEWEN  =      1916.85549914
  -Hartree energ DENC   =     -3208.88284180
  -exchange      EXHF   =         0.00000000
  -V(xc)+E(xc)   XCENC  =        98.80514932
  PAW double counting   =      1258.41795416    -1260.60715795
  entropy T*S    EENTRO =        -0.00000000
  eigenvalues    EBANDS =      -413.31293582
  atomic energy  EATOM  =      1586.38675303
  Solvation  Ecorr_sol  =         0.00000000
  ---------------------------------------------------
  free energy    TOTEN  =       -20.94008418 eV

  energy without entropy =      -20.94008418  energy(sigma->0) =      -20.94008418


--------------------------------------------------------------------------------------------------------




--------------------------------------- Iteration      1(   4)  ---------------------------------------


     EDDAV:  cpu time    0.7120: real time    0.7183
       DOS:  cpu time    0.0001: real time    0.0001
    --------------------------------------------
      LOOP:  cpu time    0.7121: real time    0.7185

 eigenvalue-minimisations  :    96
 total energy-change (2. order) :-0.6753721E+01  (-0.6735110E+01)
 number of electron      25.0000000 magnetization       5.0000000
 augmentation part       25.0000000 magnetization       5.0000000

 DIPCOR: dipole corrections for dipol
 direction  3 min pos   269,
 dipolmoment           0.000000      0.000000     -0.000152 electrons x Angstroem
 Tr[quadrupol]      -439.314195

 energy correction for charged system         0.000000 eV
 dipol+quadrupol energy correction           -0.000000 eV
 added-field ion interaction          0.002658 eV  (added to PSCEN)


 Free energy of the ion-electron system (eV)
  ---------------------------------------------------
  alpha Z        PSCENC =         1.39749574
  Ewald energy   TEWEN  =      1916.85549914
  -Hartree energ DENC   =     -3208.88284180
  -exchange      EXHF   =         0.00000000
  -V(xc)+E(xc)   XCENC  =        98.80514932
  PAW double counting   =      1258.41795416    -1260.60715795
  entropy T*S    EENTRO =        -0.00000000
  eigenvalues    EBANDS =      -420.06665672
  atomic energy  EATOM  =      1586.38675303
  Solvation  Ecorr_sol  =         0.00000000
  ---------------------------------------------------
  free energy    TOTEN  =       -27.69380507 eV

  energy without entropy =      -27.69380507  energy(sigma->0) =      -27.69380507


--------------------------------------------------------------------------------------------------------




--------------------------------------- Iteration      1(   5)  ---------------------------------------


     EDDAV:  cpu time    0.8499: real time    0.8566
       DOS:  cpu time    0.0001: real time    0.0001
    CHARGE:  cpu time    0.0921: real time    0.0925
    MIXING:  cpu time    0.0210: real time    0.0213
    --------------------------------------------
      LOOP:  cpu time    0.9631: real time    0.9706

 eigenvalue-minimisations  :   120
 total energy-change (2. order) :-0.1076914E+00  (-0.1074897E+00)
 number of electron      25.0000007 magnetization       4.7140364
 augmentation part        1.5811364 magnetization       3.7808448

 DIPCOR: dipole corrections for dipol
 direction  3 min pos   269,
 dipolmoment           0.000000      0.000000     -0.000152 electrons x Angstroem
 Tr[quadrupol]      -439.314195

 energy correction for charged system         0.000000 eV
 dipol+quadrupol energy correction           -0.000000 eV
 added-field ion interaction          0.002658 eV  (added to PSCEN)


 Broyden mixing:
  rms(total) = 0.39773E+01    rms(broyden)= 0.39771E+01
  rms(prec ) = 0.39952E+01
  weight for this iteration     100.00

 Free energy of the ion-electron system (eV)
  ---------------------------------------------------
  alpha Z        PSCENC =         1.39749574
  Ewald energy   TEWEN  =      1916.85549914
  -Hartree energ DENC   =     -3208.88284180
  -exchange      EXHF   =         0.00000000
  -V(xc)+E(xc)   XCENC  =        98.80514932
  PAW double counting   =      1258.41795416    -1260.60715795
  entropy T*S    EENTRO =        -0.00000000
  eigenvalues    EBANDS =      -420.17434815
  atomic energy  EATOM  =      1586.38675303
  Solvation  Ecorr_sol  =         0.00000000
  ---------------------------------------------------
  free energy    TOTEN  =       -27.80149650 eV

  energy without entropy =      -27.80149650  energy(sigma->0) =      -27.80149650


--------------------------------------------------------------------------------------------------------




--------------------------------------- Iteration      1(   6)  ---------------------------------------


    POTLOK:  cpu time    0.7315: real time    0.7362
    SETDIJ:  cpu time    0.0132: real time    0.0132
    EDDIAG:  cpu time    0.1380: real time    0.1388
  RMM-DIIS:  cpu time    0.5506: real time    0.5536
    ORTHCH:  cpu time    0.0084: real time    0.0085
       DOS:  cpu time    0.0002: real time    0.0002
    CHARGE:  cpu time    0.0936: real time    0.0940
    MIXING:  cpu time    0.0196: real time    0.0198
    --------------------------------------------
      LOOP:  cpu time    1.5552: real time    1.5642

 eigenvalue-minimisations  :    92
 total energy-change (2. order) : 0.1330125E+02  (-0.2844253E+01)
 number of electron      25.0000006 magnetization       4.3654639
 augmentation part        1.1623571 magnetization       3.3405933

 DIPCOR: dipole corrections for dipol
 direction  3 min pos   269,
 dipolmoment           0.000000      0.000000      0.064934 electrons x Angstroem
 Tr[quadrupol]      -438.737280

 energy correction for charged system         0.000000 eV
 dipol+quadrupol energy correction           -0.000219 eV
 added-field ion interaction         -1.136237 eV  (added to PSCEN)


 Broyden mixing:
  rms(total) = 0.20943E+01    rms(broyden)= 0.20942E+01
  rms(prec ) = 0.20961E+01
  weight for this iteration     100.00

 eigenvalues of (default mixing * dielectric matrix)
  average eigenvalue GAMMA=   0.9625
  0.9625

 Free energy of the ion-electron system (eV)
  ---------------------------------------------------
  alpha Z        PSCENC =         0.25838089
  Ewald energy   TEWEN  =      1916.85549914
  -Hartree energ DENC   =     -3250.65082503
  -exchange      EXHF   =         0.00000000
  -V(xc)+E(xc)   XCENC  =       110.22982247
  PAW double counting   =      2188.19855041    -2191.07408267
  entropy T*S    EENTRO =        -0.00000000
  eigenvalues    EBANDS =      -374.70434384
  atomic energy  EATOM  =      1586.38675303
  Solvation  Ecorr_sol  =         0.00000000
  ---------------------------------------------------
  free energy    TOTEN  =       -14.50024560 eV

  energy without entropy =      -14.50024560  energy(sigma->0) =      -14.50024560


--------------------------------------------------------------------------------------------------------




--------------------------------------- Iteration      1(   7)  ---------------------------------------


    POTLOK:  cpu time    0.7339: real time    0.7390
    SETDIJ:  cpu time    0.0117: real time    0.0117
    EDDIAG:  cpu time    0.1404: real time    0.1411
  RMM-DIIS:  cpu time    0.7229: real time    0.7265
    ORTHCH:  cpu time    0.0084: real time    0.0084
       DOS:  cpu time    0.0001: real time    0.0001
    CHARGE:  cpu time    0.0921: real time    0.0926
    MIXING:  cpu time    0.0223: real time    0.0224
    --------------------------------------------
      LOOP:  cpu time    1.7317: real time    1.7418

 eigenvalue-minimisations  :    93
 total energy-change (2. order) :-0.6820450E+01  (-0.6207166E+00)
 number of electron      25.0000005 magnetization       4.0597171
 augmentation part        1.0411012 magnetization       3.1037486

 DIPCOR: dipole corrections for dipol
 direction  3 min pos   269,
 dipolmoment           0.000000      0.000000      0.080145 electrons x Angstroem
 Tr[quadrupol]      -438.789175

 energy correction for charged system         0.000000 eV
 dipol+quadrupol energy correction           -0.000334 eV
 added-field ion interaction         -1.402389 eV  (added to PSCEN)


 Broyden mixing:
  rms(total) = 0.10137E+01    rms(broyden)= 0.10136E+01
  rms(prec ) = 0.10157E+01
  weight for this iteration     100.00

 eigenvalues of (default mixing * dielectric matrix)
  average eigenvalue GAMMA=   1.1769
  1.6799  0.6739

 Free energy of the ion-electron system (eV)
  ---------------------------------------------------
  alpha Z        PSCENC =        -0.00788572
  Ewald energy   TEWEN  =      1916.85549914
  -Hartree energ DENC   =     -3263.35121060
  -exchange      EXHF   =         0.00000000
  -V(xc)+E(xc)   XCENC  =       105.71136895
  PAW double counting   =      3163.84845210    -3166.64305686
  entropy T*S    EENTRO =        -0.00000000
  eigenvalues    EBANDS =      -364.12061538
  atomic energy  EATOM  =      1586.38675303
  Solvation  Ecorr_sol  =         0.00000000
  ---------------------------------------------------
  free energy    TOTEN  =       -21.32069535 eV

  energy without entropy =      -21.32069535  energy(sigma->0) =      -21.32069535


--------------------------------------------------------------------------------------------------------




--------------------------------------- Iteration      1(   8)  ---------------------------------------


    POTLOK:  cpu time    0.7328: real time    0.7385
    SETDIJ:  cpu time    0.0121: real time    0.0122
    EDDIAG:  cpu time    0.1384: real time    0.1391
  RMM-DIIS:  cpu time    0.5903: real time    0.5932
    ORTHCH:  cpu time    0.0084: real time    0.0084
       DOS:  cpu time    0.0001: real time    0.0001
    CHARGE:  cpu time    0.0902: real time    0.0907
    MIXING:  cpu time    0.0220: real time    0.0221
    --------------------------------------------
      LOOP:  cpu time    1.5942: real time    1.6042

 eigenvalue-minimisations  :    98
 total energy-change (2. order) :-0.1607889E+01  (-0.7265264E-01)
 number of electron      25.0000005 magnetization       3.7524530
 augmentation part        1.0799835 magnetization       2.8257569

 DIPCOR: dipole corrections for dipol
 direction  3 min pos   269,
 dipolmoment           0.000000      0.000000      0.080568 electrons x Angstroem
 Tr[quadrupol]      -438.922630

 energy correction for charged system         0.000000 eV
 dipol+quadrupol energy correction           -0.000338 eV
 added-field ion interaction         -1.409805 eV  (added to PSCEN)


 Broyden mixing:
  rms(total) = 0.31192E+00    rms(broyden)= 0.31191E+00
  rms(prec ) = 0.31298E+00
  weight for this iteration     100.00

 eigenvalues of (default mixing * dielectric matrix)
  average eigenvalue GAMMA=   1.2788
  2.1963  0.9833  0.6569

 Free energy of the ion-electron system (eV)
  ---------------------------------------------------
  alpha Z        PSCENC =        -0.01530544
  Ewald energy   TEWEN  =      1916.85549914
  -Hartree energ DENC   =     -3262.83739263
  -exchange      EXHF   =         0.00000000
  -V(xc)+E(xc)   XCENC  =       104.16498190
  PAW double counting   =      3713.98769283    -3716.61197715
  entropy T*S    EENTRO =         0.00000000
  eigenvalues    EBANDS =      -364.85883610
  atomic energy  EATOM  =      1586.38675303
  Solvation  Ecorr_sol  =         0.00000000
  ---------------------------------------------------
  free energy    TOTEN  =       -22.92858441 eV

  energy without entropy =      -22.92858441  energy(sigma->0) =      -22.92858441


--------------------------------------------------------------------------------------------------------




--------------------------------------- Iteration      1(   9)  ---------------------------------------


    POTLOK:  cpu time    0.7312: real time    0.7363
    SETDIJ:  cpu time    0.0128: real time    0.0128
    EDDIAG:  cpu time    0.1384: real time    0.1391
  RMM-DIIS:  cpu time    0.5811: real time    0.5842
    ORTHCH:  cpu time    0.0086: real time    0.0086
       DOS:  cpu time    0.0002: real time    0.0002
    CHARGE:  cpu time    0.0918: real time    0.0925
    MIXING:  cpu time    0.0228: real time    0.0229
    --------------------------------------------
      LOOP:  cpu time    1.5869: real time    1.5965

 eigenvalue-minimisations  :    98
 total energy-change (2. order) :-0.8217297E+00  (-0.2054723E-01)
 number of electron      25.0000006 magnetization       3.5671512
 augmentation part        1.1097647 magnetization       2.6488133

 DIPCOR: dipole corrections for dipol
 direction  3 min pos   269,
 dipolmoment           0.000000      0.000000      0.082187 electrons x Angstroem
 Tr[quadrupol]      -438.997492

 energy correction for charged system         0.000000 eV
 dipol+quadrupol energy correction           -0.000351 eV
 added-field ion interaction         -1.438127 eV  (added to PSCEN)


 Broyden mixing:
  rms(total) = 0.12785E+00    rms(broyden)= 0.12783E+00
  rms(prec ) = 0.12876E+00
  weight for this iteration     100.00

 eigenvalues of (default mixing * dielectric matrix)
  average eigenvalue GAMMA=   1.1948
  2.3059  0.9499  0.8998  0.6237

 Free energy of the ion-electron system (eV)
  ---------------------------------------------------
  alpha Z        PSCENC =        -0.04364109
  Ewald energy   TEWEN  =      1916.85549914
  -Hartree energ DENC   =     -3261.91751771
  -exchange      EXHF   =         0.00000000
  -V(xc)+E(xc)   XCENC  =       103.33545966
  PAW double counting   =      3966.97048457    -3969.50393926
  entropy T*S    EENTRO =        -0.00000000
  eigenvalues    EBANDS =      -365.83341244
  atomic energy  EATOM  =      1586.38675303
  Solvation  Ecorr_sol  =         0.00000000
  ---------------------------------------------------
  free energy    TOTEN  =       -23.75031410 eV

  energy without entropy =      -23.75031410  energy(sigma->0) =      -23.75031410


--------------------------------------------------------------------------------------------------------




--------------------------------------- Iteration      1(  10)  ---------------------------------------


    POTLOK:  cpu time    0.7398: real time    0.7441
    SETDIJ:  cpu time    0.0125: real time    0.0125
    EDDIAG:  cpu time    0.1385: real time    0.1391
  RMM-DIIS:  cpu time    0.5979: real time    0.6010
    ORTHCH:  cpu time    0.0082: real time    0.0083
       DOS:  cpu time    0.0002: real time    0.0002
    CHARGE:  cpu time    0.0904: real time    0.0909
    MIXING:  cpu time    0.0230: real time    0.0231
    --------------------------------------------
      LOOP:  cpu time    1.6105: real time    1.6192

 eigenvalue-minimisations  :   101
 total energy-change (2. order) :-0.3665502E+00  (-0.4400349E-02)
 number of electron      25.0000006 magnetization       3.1738073
 augmentation part        1.0994456 magnetization       2.2600520

 DIPCOR: dipole corrections for dipol
 direction  3 min pos   269,
 dipolmoment           0.000000      0.000000      0.084909 electrons x Angstroem
 Tr[quadrupol]      -439.003791

 energy correction for charged system         0.000000 eV
 dipol+quadrupol energy correction           -0.000375 eV
 added-field ion interaction         -1.485756 eV  (added to PSCEN)


 Broyden mixing:
  rms(total) = 0.10084E+00    rms(broyden)= 0.10084E+00
  rms(prec ) = 0.10126E+00
  weight for this iteration     100.00

 eigenvalues of (default mixing * dielectric matrix)
  average eigenvalue GAMMA=   1.1800
  2.3829  1.0719  1.0719  0.6351  0.7384

 Free energy of the ion-electron system (eV)
  ---------------------------------------------------
  alpha Z        PSCENC =        -0.09129327
  Ewald energy   TEWEN  =      1916.85549914
  -Hartree energ DENC   =     -3262.95766014
  -exchange      EXHF   =         0.00000000
  -V(xc)+E(xc)   XCENC  =       103.07570084
  PAW double counting   =      4013.51079799    -4016.04936688
  entropy T*S    EENTRO =        -0.00000000
  eigenvalues    EBANDS =      -364.84729504
  atomic energy  EATOM  =      1586.38675303
  Solvation  Ecorr_sol  =         0.00000000
  ---------------------------------------------------
  free energy    TOTEN  =       -24.11686433 eV

  energy without entropy =      -24.11686433  energy(sigma->0) =      -24.11686433


--------------------------------------------------------------------------------------------------------




--------------------------------------- Iteration      1(  11)  ---------------------------------------


    POTLOK:  cpu time    0.7353: real time    0.7404
    SETDIJ:  cpu time    0.0117: real time    0.0118
    EDDIAG:  cpu time    0.1371: real time    0.1381
  RMM-DIIS:  cpu time    0.5479: real time    0.5505
    ORTHCH:  cpu time    0.0089: real time    0.0089
       DOS:  cpu time    0.0002: real time    0.0002
    CHARGE:  cpu time    0.0921: real time    0.0925
    MIXING:  cpu time    0.0240: real time    0.0241
    --------------------------------------------
      LOOP:  cpu time    1.5571: real time    1.5665

 eigenvalue-minimisations  :    93
 total energy-change (2. order) :-0.6587015E+00  (-0.7324815E-02)
 number of electron      25.0000006 magnetization       2.7430824
 augmentation part        1.0900162 magnetization       1.8341912

 DIPCOR: dipole corrections for dipol
 direction  3 min pos   269,
 dipolmoment           0.000000      0.000000      0.085932 electrons x Angstroem
 Tr[quadrupol]      -439.054955

 energy correction for charged system         0.000000 eV
 dipol+quadrupol energy correction           -0.000384 eV
 added-field ion interaction         -1.503667 eV  (added to PSCEN)


 Broyden mixing:
  rms(total) = 0.81707E-01    rms(broyden)= 0.81705E-01
  rms(prec ) = 0.81979E-01
  weight for this iteration     100.00

 eigenvalues of (default mixing * dielectric matrix)
  average eigenvalue GAMMA=   1.2893
  2.6185  1.9488  0.9418  0.9418  0.6426  0.6426

 Free energy of the ion-electron system (eV)
  ---------------------------------------------------
  alpha Z        PSCENC =        -0.10921307
  Ewald energy   TEWEN  =      1916.85549914
  -Hartree energ DENC   =     -3263.52064138
  -exchange      EXHF   =         0.00000000
  -V(xc)+E(xc)   XCENC  =       102.53147300
  PAW double counting   =      4048.73373092    -4051.26576144
  entropy T*S    EENTRO =        -0.00000000
  eigenvalues    EBANDS =      -364.38740604
  atomic energy  EATOM  =      1586.38675303
  Solvation  Ecorr_sol  =         0.00000000
  ---------------------------------------------------
  free energy    TOTEN  =       -24.77556583 eV

  energy without entropy =      -24.77556583  energy(sigma->0) =      -24.77556583


--------------------------------------------------------------------------------------------------------




--------------------------------------- Iteration      1(  12)  ---------------------------------------


    POTLOK:  cpu time    0.7321: real time    0.7375
    SETDIJ:  cpu time    0.0120: real time    0.0121
    EDDIAG:  cpu time    0.1366: real time    0.1373
  RMM-DIIS:  cpu time    0.5138: real time    0.5165
    ORTHCH:  cpu time    0.0082: real time    0.0082
       DOS:  cpu time    0.0002: real time    0.0002
    CHARGE:  cpu time    0.0908: real time    0.0914
    MIXING:  cpu time    0.0239: real time    0.0240
    --------------------------------------------
      LOOP:  cpu time    1.5175: real time    1.5271

 eigenvalue-minimisations  :    90
 total energy-change (2. order) :-0.4946382E+00  (-0.7401877E-02)
 number of electron      25.0000006 magnetization       2.0812785
 augmentation part        1.0891425 magnetization       1.1758884

 DIPCOR: dipole corrections for dipol
 direction  3 min pos   269,
 dipolmoment           0.000000      0.000000      0.083171 electrons x Angstroem
 Tr[quadrupol]      -439.134805

 energy correction for charged system         0.000000 eV
 dipol+quadrupol energy correction           -0.000360 eV
 added-field ion interaction         -1.455346 eV  (added to PSCEN)


 Broyden mixing:
  rms(total) = 0.62514E-01    rms(broyden)= 0.62514E-01
  rms(prec ) = 0.62717E-01
  weight for this iteration     100.00

 eigenvalues of (default mixing * dielectric matrix)
  average eigenvalue GAMMA=   1.4925
  3.7957  2.3347  1.0603  1.0603  0.9010  0.6277  0.6679

 Free energy of the ion-electron system (eV)
  ---------------------------------------------------
  alpha Z        PSCENC =        -0.06086828
  Ewald energy   TEWEN  =      1916.85549914
  -Hartree energ DENC   =     -3263.21524235
  -exchange      EXHF   =         0.00000000
  -V(xc)+E(xc)   XCENC  =       102.08245218
  PAW double counting   =      4046.23435976    -4048.75431823
  entropy T*S    EENTRO =         0.00000000
  eigenvalues    EBANDS =      -364.79883922
  atomic energy  EATOM  =      1586.38675303
  Solvation  Ecorr_sol  =         0.00000000
  ---------------------------------------------------
  free energy    TOTEN  =       -25.27020398 eV

  energy without entropy =      -25.27020398  energy(sigma->0) =      -25.27020398


--------------------------------------------------------------------------------------------------------




--------------------------------------- Iteration      1(  13)  ---------------------------------------


    POTLOK:  cpu time    0.7387: real time    0.7443
    SETDIJ:  cpu time    0.0128: real time    0.0129
    EDDIAG:  cpu time    0.1393: real time    0.1399
  RMM-DIIS:  cpu time    0.4983: real time    0.5008
    ORTHCH:  cpu time    0.0088: real time    0.0088
       DOS:  cpu time    0.0002: real time    0.0002
    CHARGE:  cpu time    0.0888: real time    0.0892
    MIXING:  cpu time    0.0252: real time    0.0254
    --------------------------------------------
      LOOP:  cpu time    1.5120: real time    1.5214

 eigenvalue-minimisations  :    88
 total energy-change (2. order) :-0.4901178E+00  (-0.1474302E-01)
 number of electron      25.0000006 magnetization       1.6639656
 augmentation part        1.0952962 magnetization       0.7627520

 DIPCOR: dipole corrections for dipol
 direction  3 min pos   269,
 dipolmoment           0.000000      0.000000      0.072881 electrons x Angstroem
 Tr[quadrupol]      -439.274637

 energy correction for charged system         0.000000 eV
 dipol+quadrupol energy correction           -0.000276 eV
 added-field ion interaction         -1.275292 eV  (added to PSCEN)


 Broyden mixing:
  rms(total) = 0.37580E-01    rms(broyden)= 0.37576E-01
  rms(prec ) = 0.37877E-01
  weight for this iteration     100.00

 eigenvalues of (default mixing * dielectric matrix)
  average eigenvalue GAMMA=   1.7905
  6.4517  2.3916  1.4679  0.9356  0.8799  0.8799  0.6198  0.6978

 Free energy of the ion-electron system (eV)
  ---------------------------------------------------
  alpha Z        PSCENC =         0.11926899
  Ewald energy   TEWEN  =      1916.85549914
  -Hartree energ DENC   =     -3262.26819854
  -exchange      EXHF   =         0.00000000
  -V(xc)+E(xc)   XCENC  =       101.60064508
  PAW double counting   =      4009.37932478    -4011.88695662
  entropy T*S    EENTRO =        -0.00000000
  eigenvalues    EBANDS =      -365.94665763
  atomic energy  EATOM  =      1586.38675303
  Solvation  Ecorr_sol  =         0.00000000
  ---------------------------------------------------
  free energy    TOTEN  =       -25.76032177 eV

  energy without entropy =      -25.76032177  energy(sigma->0) =      -25.76032177


--------------------------------------------------------------------------------------------------------




--------------------------------------- Iteration      1(  14)  ---------------------------------------


    POTLOK:  cpu time    0.9936: real time    1.0002
    SETDIJ:  cpu time    0.0124: real time    0.0124
    EDDIAG:  cpu time    0.1370: real time    0.1376
  RMM-DIIS:  cpu time    0.5470: real time    0.5497
    ORTHCH:  cpu time    0.0084: real time    0.0085
       DOS:  cpu time    0.0001: real time    0.0001
    CHARGE:  cpu time    0.0902: real time    0.0906
    MIXING:  cpu time    0.0260: real time    0.0261
    --------------------------------------------
      LOOP:  cpu time    1.8147: real time    1.8253

 eigenvalue-minimisations  :    93
 total energy-change (2. order) :-0.3045265E+00  (-0.8419608E-02)
 number of electron      25.0000006 magnetization       1.4608427
 augmentation part        1.0944168 magnetization       0.5641668

 DIPCOR: dipole corrections for dipol
 direction  3 min pos   269,
 dipolmoment           0.000000      0.000000      0.064209 electrons x Angstroem
 Tr[quadrupol]      -439.353062

 energy correction for charged system         0.000000 eV
 dipol+quadrupol energy correction           -0.000214 eV
 added-field ion interaction         -1.123551 eV  (added to PSCEN)


 Broyden mixing:
  rms(total) = 0.25097E-01    rms(broyden)= 0.25095E-01
  rms(prec ) = 0.25519E-01
  weight for this iteration     100.00

 eigenvalues of (default mixing * dielectric matrix)
  average eigenvalue GAMMA=   1.9670
  8.4495  2.3589  1.8051  1.0254  1.0254  1.0144  0.7501  0.6549  0.6190

 Free energy of the ion-electron system (eV)
  ---------------------------------------------------
  alpha Z        PSCENC =         0.27107183
  Ewald energy   TEWEN  =      1916.85549914
  -Hartree energ DENC   =     -3262.07718646
  -exchange      EXHF   =         0.00000000
  -V(xc)+E(xc)   XCENC  =       101.31461858
  PAW double counting   =      4003.64236020    -4006.15371003
  entropy T*S    EENTRO =        -0.00000000
  eigenvalues    EBANDS =      -366.30425452
  atomic energy  EATOM  =      1586.38675303
  Solvation  Ecorr_sol  =         0.00000000
  ---------------------------------------------------
  free energy    TOTEN  =       -26.06484823 eV

  energy without entropy =      -26.06484823  energy(sigma->0) =      -26.06484823


--------------------------------------------------------------------------------------------------------




--------------------------------------- Iteration      1(  15)  ---------------------------------------


    POTLOK:  cpu time    0.7413: real time    0.7454
    SETDIJ:  cpu time    0.0129: real time    0.0129
    EDDIAG:  cpu time    0.1390: real time    0.1397
  RMM-DIIS:  cpu time    0.5640: real time    0.5667
    ORTHCH:  cpu time    0.0085: real time    0.0085
       DOS:  cpu time    0.0001: real time    0.0001
    CHARGE:  cpu time    0.0908: real time    0.0913
    MIXING:  cpu time    0.0258: real time    0.0259
    --------------------------------------------
      LOOP:  cpu time    1.5824: real time    1.5905

 eigenvalue-minimisations  :    99
 total energy-change (2. order) :-0.1086755E+00  (-0.2416011E-02)
 number of electron      25.0000006 magnetization       1.3336680
 augmentation part        1.0891861 magnetization       0.4405957

 DIPCOR: dipole corrections for dipol
 direction  3 min pos   269,
 dipolmoment           0.000000      0.000000      0.057618 electrons x Angstroem
 Tr[quadrupol]      -439.379167

 energy correction for charged system         0.000000 eV
 dipol+quadrupol energy correction           -0.000173 eV
 added-field ion interaction         -1.008209 eV  (added to PSCEN)


 Broyden mixing:
  rms(total) = 0.15096E-01    rms(broyden)= 0.15092E-01
  rms(prec ) = 0.15461E-01
  weight for this iteration     100.00

 eigenvalues of (default mixing * dielectric matrix)
  average eigenvalue GAMMA=   2.0557
  9.7703  2.3401  2.3401  1.2333  0.9962  0.9962  0.8734  0.7401  0.6287  0.6385

 Free energy of the ion-electron system (eV)
  ---------------------------------------------------
  alpha Z        PSCENC =         0.38645599
  Ewald energy   TEWEN  =      1916.85549914
  -Hartree energ DENC   =     -3261.95180595
  -exchange      EXHF   =         0.00000000
  -V(xc)+E(xc)   XCENC  =       101.22069282
  PAW double counting   =      4016.90778919    -4019.42444220
  entropy T*S    EENTRO =        -0.00000000
  eigenvalues    EBANDS =      -366.55446579
  atomic energy  EATOM  =      1586.38675303
  Solvation  Ecorr_sol  =         0.00000000
  ---------------------------------------------------
  free energy    TOTEN  =       -26.17352377 eV

  energy without entropy =      -26.17352377  energy(sigma->0) =      -26.17352377


--------------------------------------------------------------------------------------------------------




--------------------------------------- Iteration      1(  16)  ---------------------------------------


    POTLOK:  cpu time    0.7401: real time    0.7453
    SETDIJ:  cpu time    0.0133: real time    0.0134
    EDDIAG:  cpu time    0.1367: real time    0.1373
  RMM-DIIS:  cpu time    0.5821: real time    0.5850
    ORTHCH:  cpu time    0.0084: real time    0.0085
       DOS:  cpu time    0.0001: real time    0.0001
    CHARGE:  cpu time    0.0907: real time    0.0912
    MIXING:  cpu time    0.0262: real time    0.0264
    --------------------------------------------
      LOOP:  cpu time    1.5979: real time    1.6074

 eigenvalue-minimisations  :    99
 total energy-change (2. order) :-0.5094723E-01  (-0.3839505E-03)
 number of electron      25.0000006 magnetization       1.2502428
 augmentation part        1.0895215 magnetization       0.3582232

 DIPCOR: dipole corrections for dipol
 direction  3 min pos   269,
 dipolmoment           0.000000      0.000000      0.051080 electrons x Angstroem
 Tr[quadrupol]      -439.399689

 energy correction for charged system         0.000000 eV
 dipol+quadrupol energy correction           -0.000136 eV
 added-field ion interaction         -0.893806 eV  (added to PSCEN)


 Broyden mixing:
  rms(total) = 0.10243E-01    rms(broyden)= 0.10243E-01
  rms(prec ) = 0.10447E-01
  weight for this iteration     100.00

 eigenvalues of (default mixing * dielectric matrix)
  average eigenvalue GAMMA=   2.0968
 10.5915  2.8504  2.4408  1.3545  1.0093  1.0093  1.0417  0.7895  0.7070  0.6227
  0.6479

 Free energy of the ion-electron system (eV)
  ---------------------------------------------------
  alpha Z        PSCENC =         0.50089601
  Ewald energy   TEWEN  =      1916.85549914
  -Hartree energ DENC   =     -3261.28917984
  -exchange      EXHF   =         0.00000000
  -V(xc)+E(xc)   XCENC  =       101.14907129
  PAW double counting   =      4020.76811329    -4023.28147452
  entropy T*S    EENTRO =        -0.00000000
  eigenvalues    EBANDS =      -367.31414941
  atomic energy  EATOM  =      1586.38675303
  Solvation  Ecorr_sol  =         0.00000000
  ---------------------------------------------------
  free energy    TOTEN  =       -26.22447101 eV

  energy without entropy =      -26.22447101  energy(sigma->0) =      -26.22447101


--------------------------------------------------------------------------------------------------------




--------------------------------------- Iteration      1(  17)  ---------------------------------------


    POTLOK:  cpu time    0.7350: real time    0.7401
    SETDIJ:  cpu time    0.0132: real time    0.0133
    EDDIAG:  cpu time    0.1401: real time    0.1408
  RMM-DIIS:  cpu time    0.7112: real time    0.7145
    ORTHCH:  cpu time    0.0081: real time    0.0081
       DOS:  cpu time    0.0001: real time    0.0001
    CHARGE:  cpu time    0.0908: real time    0.0912
    MIXING:  cpu time    0.0279: real time    0.0280
    --------------------------------------------
      LOOP:  cpu time    1.7262: real time    1.7359

 eigenvalue-minimisations  :    98
 total energy-change (2. order) :-0.3527499E-01  (-0.1109246E-03)
 number of electron      25.0000006 magnetization       1.1930570
 augmentation part        1.0903431 magnetization       0.3011781

 DIPCOR: dipole corrections for dipol
 direction  3 min pos   269,
 dipolmoment           0.000000      0.000000      0.046561 electrons x Angstroem
 Tr[quadrupol]      -439.411301

 energy correction for charged system         0.000000 eV
 dipol+quadrupol energy correction           -0.000113 eV
 added-field ion interaction         -0.814742 eV  (added to PSCEN)


 Broyden mixing:
  rms(total) = 0.76462E-02    rms(broyden)= 0.76460E-02
  rms(prec ) = 0.77388E-02
  weight for this iteration     100.00

 eigenvalues of (default mixing * dielectric matrix)
  average eigenvalue GAMMA=   2.1067
 11.1022  3.5076  2.3787  1.5017  1.2205  1.0055  1.0055  0.8086  0.8086  0.6145
  0.6634  0.6634

 Free energy of the ion-electron system (eV)
  ---------------------------------------------------
  alpha Z        PSCENC =         0.57998236
  Ewald energy   TEWEN  =      1916.85549914
  -Hartree energ DENC   =     -3260.81523745
  -exchange      EXHF   =         0.00000000
  -V(xc)+E(xc)   XCENC  =       101.09957474
  PAW double counting   =      4020.36815772    -4022.87960938
  entropy T*S    EENTRO =         0.00000000
  eigenvalues    EBANDS =      -367.85486616
  atomic energy  EATOM  =      1586.38675303
  Solvation  Ecorr_sol  =         0.00000000
  ---------------------------------------------------
  free energy    TOTEN  =       -26.25974600 eV

  energy without entropy =      -26.25974600  energy(sigma->0) =      -26.25974600


--------------------------------------------------------------------------------------------------------




--------------------------------------- Iteration      1(  18)  ---------------------------------------


    POTLOK:  cpu time    0.7386: real time    0.7433
    SETDIJ:  cpu time    0.0138: real time    0.0139
    EDDIAG:  cpu time    0.1378: real time    0.1385
  RMM-DIIS:  cpu time    0.5789: real time    0.5842
    ORTHCH:  cpu time    0.0079: real time    0.0080
       DOS:  cpu time    0.0002: real time    0.0002
    CHARGE:  cpu time    0.0863: real time    0.0868
    MIXING:  cpu time    0.0295: real time    0.0297
    --------------------------------------------
      LOOP:  cpu time    1.5932: real time    1.6046

 eigenvalue-minimisations  :    92
 total energy-change (2. order) :-0.2457164E-01  (-0.4644575E-04)
 number of electron      25.0000006 magnetization       1.1305831
 augmentation part        1.0904039 magnetization       0.2387109

 DIPCOR: dipole corrections for dipol
 direction  3 min pos   269,
 dipolmoment           0.000000      0.000000      0.044172 electrons x Angstroem
 Tr[quadrupol]      -439.415111

 energy correction for charged system         0.000000 eV
 dipol+quadrupol energy correction           -0.000101 eV
 added-field ion interaction         -0.772929 eV  (added to PSCEN)


 Broyden mixing:
  rms(total) = 0.61316E-02    rms(broyden)= 0.61314E-02
  rms(prec ) = 0.61774E-02
  weight for this iteration     100.00

 eigenvalues of (default mixing * dielectric matrix)
  average eigenvalue GAMMA=   2.1188
 11.3571  4.0431  2.3799  1.8059  1.3317  1.0239  1.0239  1.0097  0.8220  0.8220
  0.6781  0.6159  0.6316

 Free energy of the ion-electron system (eV)
  ---------------------------------------------------
  alpha Z        PSCENC =         0.62180746
  Ewald energy   TEWEN  =      1916.85549914
  -Hartree energ DENC   =     -3260.58006774
  -exchange      EXHF   =         0.00000000
  -V(xc)+E(xc)   XCENC  =       101.07096393
  PAW double counting   =      4020.20967263    -4022.72109835
  entropy T*S    EENTRO =        -0.00000000
  eigenvalues    EBANDS =      -368.12784773
  atomic energy  EATOM  =      1586.38675303
  Solvation  Ecorr_sol  =         0.00000000
  ---------------------------------------------------
  free energy    TOTEN  =       -26.28431763 eV

  energy without entropy =      -26.28431763  energy(sigma->0) =      -26.28431763


--------------------------------------------------------------------------------------------------------




--------------------------------------- Iteration      1(  19)  ---------------------------------------


    POTLOK:  cpu time    0.7404: real time    0.7446
    SETDIJ:  cpu time    0.0113: real time    0.0114
    EDDIAG:  cpu time    0.1400: real time    0.1407
  RMM-DIIS:  cpu time    0.5319: real time    0.5346
    ORTHCH:  cpu time    0.0088: real time    0.0089
       DOS:  cpu time    0.0002: real time    0.0002
    CHARGE:  cpu time    0.0906: real time    0.0910
    MIXING:  cpu time    0.0303: real time    0.0304
    --------------------------------------------
      LOOP:  cpu time    1.5535: real time    1.5618

 eigenvalue-minimisations  :    88
 total energy-change (2. order) :-0.1728819E-01  (-0.3131244E-04)
 number of electron      25.0000006 magnetization       1.0815509
 augmentation part        1.0898683 magnetization       0.1897422

 DIPCOR: dipole corrections for dipol
 direction  3 min pos   269,
 dipolmoment           0.000000      0.000000      0.043155 electrons x Angstroem
 Tr[quadrupol]      -439.413915

 energy correction for charged system         0.000000 eV
 dipol+quadrupol energy correction           -0.000097 eV
 added-field ion interaction         -0.755144 eV  (added to PSCEN)


 Broyden mixing:
  rms(total) = 0.45341E-02    rms(broyden)= 0.45339E-02
  rms(prec ) = 0.45643E-02
  weight for this iteration     100.00

 eigenvalues of (default mixing * dielectric matrix)
  average eigenvalue GAMMA=   2.1651
 11.5583  4.9326  2.4548  2.4548  1.4723  1.0156  1.0156  1.0762  0.8263  0.8263
  0.7586  0.6801  0.6199  0.6199

 Free energy of the ion-electron system (eV)
  ---------------------------------------------------
  alpha Z        PSCENC =         0.63959661
  Ewald energy   TEWEN  =      1916.85549914
  -Hartree energ DENC   =     -3260.43281077
  -exchange      EXHF   =         0.00000000
  -V(xc)+E(xc)   XCENC  =       101.05432984
  PAW double counting   =      4021.36278269    -4023.87484069
  entropy T*S    EENTRO =        -0.00000000
  eigenvalues    EBANDS =      -368.29291567
  atomic energy  EATOM  =      1586.38675303
  Solvation  Ecorr_sol  =         0.00000000
  ---------------------------------------------------
  free energy    TOTEN  =       -26.30160582 eV

  energy without entropy =      -26.30160582  energy(sigma->0) =      -26.30160582


--------------------------------------------------------------------------------------------------------




--------------------------------------- Iteration      1(  20)  ---------------------------------------


    POTLOK:  cpu time    0.9374: real time    0.9435
    SETDIJ:  cpu time    0.0135: real time    0.0136
    EDDIAG:  cpu time    0.1368: real time    0.1374
  RMM-DIIS:  cpu time    0.5619: real time    0.5646
    ORTHCH:  cpu time    0.0092: real time    0.0092
       DOS:  cpu time    0.0002: real time    0.0002
    CHARGE:  cpu time    0.0914: real time    0.0919
    MIXING:  cpu time    0.0306: real time    0.0308
    --------------------------------------------
      LOOP:  cpu time    1.7810: real time    1.7912

 eigenvalue-minimisations  :    92
 total energy-change (2. order) :-0.7526295E-02  (-0.1403332E-04)
 number of electron      25.0000006 magnetization       1.0353215
 augmentation part        1.0897698 magnetization       0.1434665

 DIPCOR: dipole corrections for dipol
 direction  3 min pos   269,
 dipolmoment           0.000000      0.000000      0.043590 electrons x Angstroem
 Tr[quadrupol]      -439.410660

 energy correction for charged system         0.000000 eV
 dipol+quadrupol energy correction           -0.000099 eV
 added-field ion interaction         -0.762740 eV  (added to PSCEN)


 Broyden mixing:
  rms(total) = 0.32645E-02    rms(broyden)= 0.32644E-02
  rms(prec ) = 0.33081E-02
  weight for this iteration     100.00

 eigenvalues of (default mixing * dielectric matrix)
  average eigenvalue GAMMA=   2.2424
 11.7806  6.2153  3.0633  2.3868  1.5387  1.3936  1.0208  1.0208  0.9236  0.8192
  0.8192  0.7378  0.6717  0.6171  0.6270

 Free energy of the ion-electron system (eV)
  ---------------------------------------------------
  alpha Z        PSCENC =         0.63199866
  Ewald energy   TEWEN  =      1916.85549914
  -Hartree energ DENC   =     -3260.32711280
  -exchange      EXHF   =         0.00000000
  -V(xc)+E(xc)   XCENC  =       101.04609579
  PAW double counting   =      4020.86345232    -4023.37567883
  entropy T*S    EENTRO =        -0.00000000
  eigenvalues    EBANDS =      -368.39013943
  atomic energy  EATOM  =      1586.38675303
  Solvation  Ecorr_sol  =         0.00000000
  ---------------------------------------------------
  free energy    TOTEN  =       -26.30913212 eV

  energy without entropy =      -26.30913212  energy(sigma->0) =      -26.30913212


--------------------------------------------------------------------------------------------------------




--------------------------------------- Iteration      1(  21)  ---------------------------------------


    POTLOK:  cpu time    0.7336: real time    0.7387
    SETDIJ:  cpu time    0.0114: real time    0.0115
    EDDIAG:  cpu time    0.1380: real time    0.1386
  RMM-DIIS:  cpu time    0.5182: real time    0.5207
    ORTHCH:  cpu time    0.0086: real time    0.0086
       DOS:  cpu time    0.0002: real time    0.0002
    CHARGE:  cpu time    0.0914: real time    0.0919
    MIXING:  cpu time    0.0318: real time    0.0320
    --------------------------------------------
      LOOP:  cpu time    1.5332: real time    1.5422

 eigenvalue-minimisations  :    87
 total energy-change (2. order) :-0.5859174E-02  (-0.8875803E-05)
 number of electron      25.0000006 magnetization       1.0116234
 augmentation part        1.0902616 magnetization       0.1197399

 DIPCOR: dipole corrections for dipol
 direction  3 min pos   269,
 dipolmoment           0.000000      0.000000      0.045885 electrons x Angstroem
 Tr[quadrupol]      -439.404600

 energy correction for charged system         0.000000 eV
 dipol+quadrupol energy correction           -0.000109 eV
 added-field ion interaction         -0.802904 eV  (added to PSCEN)


 Broyden mixing:
  rms(total) = 0.16629E-02    rms(broyden)= 0.16627E-02
  rms(prec ) = 0.17231E-02
  weight for this iteration     100.00

 eigenvalues of (default mixing * dielectric matrix)
  average eigenvalue GAMMA=   2.3894
 12.3294  8.2558  3.5630  2.3883  1.9075  1.5208  1.0146  1.0146  1.0709  0.8508
  0.8508  0.8315  0.7147  0.6758  0.6151  0.6269

 Free energy of the ion-electron system (eV)
  ---------------------------------------------------
  alpha Z        PSCENC =         0.59182353
  Ewald energy   TEWEN  =      1916.85549914
  -Hartree energ DENC   =     -3260.23171026
  -exchange      EXHF   =         0.00000000
  -V(xc)+E(xc)   XCENC  =       101.03780607
  PAW double counting   =      4020.19012368    -4022.70173828
  entropy T*S    EENTRO =        -0.00000000
  eigenvalues    EBANDS =      -368.44354822
  atomic energy  EATOM  =      1586.38675303
  Solvation  Ecorr_sol  =         0.00000000
  ---------------------------------------------------
  free energy    TOTEN  =       -26.31499129 eV

  energy without entropy =      -26.31499129  energy(sigma->0) =      -26.31499129


--------------------------------------------------------------------------------------------------------




--------------------------------------- Iteration      1(  22)  ---------------------------------------


    POTLOK:  cpu time    0.7336: real time    0.7379
    SETDIJ:  cpu time    0.0116: real time    0.0116
    EDDIAG:  cpu time    0.1391: real time    0.1398
  RMM-DIIS:  cpu time    0.4629: real time    0.4651
    ORTHCH:  cpu time    0.0085: real time    0.0086
       DOS:  cpu time    0.0002: real time    0.0002
    CHARGE:  cpu time    0.0913: real time    0.0917
    MIXING:  cpu time    0.0302: real time    0.0303
    --------------------------------------------
      LOOP:  cpu time    1.4772: real time    1.4851

 eigenvalue-minimisations  :    77
 total energy-change (2. order) :-0.3802582E-02  (-0.3521192E-05)
 number of electron      25.0000006 magnetization       1.0038866
 augmentation part        1.0902400 magnetization       0.1120461

 DIPCOR: dipole corrections for dipol
 direction  3 min pos   269,
 dipolmoment           0.000000      0.000000      0.048231 electrons x Angstroem
 Tr[quadrupol]      -439.398859

 energy correction for charged system         0.000000 eV
 dipol+quadrupol energy correction           -0.000121 eV
 added-field ion interaction         -0.843960 eV  (added to PSCEN)


 Broyden mixing:
  rms(total) = 0.84519E-03    rms(broyden)= 0.84503E-03
  rms(prec ) = 0.91320E-03
  weight for this iteration     100.00

 eigenvalues of (default mixing * dielectric matrix)
  average eigenvalue GAMMA=   2.4550
 13.2444  9.4412  3.8175  2.3563  2.2072  1.5375  1.1448  1.0096  1.0096  0.8091
  0.8091  0.8575  0.8575  0.7184  0.6750  0.6185  0.6209

 Free energy of the ion-electron system (eV)
  ---------------------------------------------------
  alpha Z        PSCENC =         0.55075696
  Ewald energy   TEWEN  =      1916.85549914
  -Hartree energ DENC   =     -3260.23363753
  -exchange      EXHF   =         0.00000000
  -V(xc)+E(xc)   XCENC  =       101.03488821
  PAW double counting   =      4020.10713989    -4022.61905383
  entropy T*S    EENTRO =        -0.00000000
  eigenvalues    EBANDS =      -368.40113975
  atomic energy  EATOM  =      1586.38675303
  Solvation  Ecorr_sol  =         0.00000000
  ---------------------------------------------------
  free energy    TOTEN  =       -26.31879387 eV

  energy without entropy =      -26.31879387  energy(sigma->0) =      -26.31879387


--------------------------------------------------------------------------------------------------------




--------------------------------------- Iteration      1(  23)  ---------------------------------------


    POTLOK:  cpu time    0.7386: real time    0.7429
    SETDIJ:  cpu time    0.0133: real time    0.0134
    EDDIAG:  cpu time    0.1383: real time    0.1389
  RMM-DIIS:  cpu time    0.4673: real time    0.4696
    ORTHCH:  cpu time    0.0089: real time    0.0089
       DOS:  cpu time    0.0002: real time    0.0002
    CHARGE:  cpu time    0.0900: real time    0.0904
    MIXING:  cpu time    0.0328: real time    0.0330
    --------------------------------------------
      LOOP:  cpu time    1.4893: real time    1.4973

 eigenvalue-minimisations  :    75
 total energy-change (2. order) :-0.2017815E-02  (-0.9815966E-06)
 number of electron      25.0000006 magnetization       1.0019191
 augmentation part        1.0901688 magnetization       0.1101146

 DIPCOR: dipole corrections for dipol
 direction  3 min pos   269,
 dipolmoment           0.000000      0.000000      0.049405 electrons x Angstroem
 Tr[quadrupol]      -439.396129

 energy correction for charged system         0.000000 eV
 dipol+quadrupol energy correction           -0.000127 eV
 added-field ion interaction         -0.864500 eV  (added to PSCEN)


 Broyden mixing:
  rms(total) = 0.47764E-03    rms(broyden)= 0.47761E-03
  rms(prec ) = 0.54263E-03
  weight for this iteration     100.00

 eigenvalues of (default mixing * dielectric matrix)
  average eigenvalue GAMMA=   2.4343
 13.7033  9.7564  3.9207  2.3429  2.3429  1.5206  1.3353  1.0220  1.0220  0.9165
  0.9165  0.8085  0.8085  0.8078  0.7051  0.6441  0.6171  0.6273

 Free energy of the ion-electron system (eV)
  ---------------------------------------------------
  alpha Z        PSCENC =         0.53021102
  Ewald energy   TEWEN  =      1916.85549914
  -Hartree energ DENC   =     -3260.25105751
  -exchange      EXHF   =         0.00000000
  -V(xc)+E(xc)   XCENC  =       101.03376320
[...]
      LOOP:  cpu time    1.5395: real time    1.5477

 eigenvalue-minimisations  :    66
 total energy-change (2. order) :-0.1071631E-03  (-0.4275534E-06)
 number of electron      25.0000006 magnetization       1.0001888
 augmentation part        1.0901070 magnetization       0.1084270

 DIPCOR: dipole corrections for dipol
 direction  3 min pos   269,
 dipolmoment           0.000000      0.000000      0.051038 electrons x Angstroem
 Tr[quadrupol]      -439.392234

 energy correction for charged system         0.000000 eV
 dipol+quadrupol energy correction           -0.000135 eV
 added-field ion interaction         -0.893073 eV  (added to PSCEN)


 Broyden mixing:
  rms(total) = 0.10208E-03    rms(broyden)= 0.10206E-03
  rms(prec ) = 0.12002E-03
  weight for this iteration     100.00

 eigenvalues of (default mixing * dielectric matrix)
  average eigenvalue GAMMA=   2.3580
 13.9554  9.9566  4.1616  3.2158  2.3452  2.3452  1.4742  1.3767  1.0253  1.0253
  1.0222  1.0222  0.8142  0.8142  0.8911  0.8108  0.6984  0.6931  0.6162  0.6268
  0.6268

 Free energy of the ion-electron system (eV)
  ---------------------------------------------------
  alpha Z        PSCENC =         0.50162876
  Ewald energy   TEWEN  =      1916.85549914
  -Hartree energ DENC   =     -3260.30190605
  -exchange      EXHF   =         0.00000000
  -V(xc)+E(xc)   XCENC  =       101.03409824
  PAW double counting   =      4020.84641495    -4023.35852272
  entropy T*S    EENTRO =        -0.00000000
  eigenvalues    EBANDS =      -368.28558487
  atomic energy  EATOM  =      1586.38675303
  Solvation  Ecorr_sol  =         0.00000000
  ---------------------------------------------------
  free energy    TOTEN  =       -26.32161953 eV

  energy without entropy =      -26.32161953  energy(sigma->0) =      -26.32161953


--------------------------------------------------------------------------------------------------------




--------------------------------------- Iteration      1(  27)  ---------------------------------------


    POTLOK:  cpu time    0.7358: real time    0.7397
    SETDIJ:  cpu time    0.0116: real time    0.0117
    EDDIAG:  cpu time    0.1386: real time    0.1393
  RMM-DIIS:  cpu time    0.3971: real time    0.3990
    ORTHCH:  cpu time    0.0083: real time    0.0084
       DOS:  cpu time    0.0002: real time    0.0002
    CHARGE:  cpu time    0.0894: real time    0.0898
    MIXING:  cpu time    0.0346: real time    0.0348
    --------------------------------------------
      LOOP:  cpu time    1.4155: real time    1.4227

 eigenvalue-minimisations  :    63
 total energy-change (2. order) :-0.4057419E-04  (-0.1363676E-06)
 number of electron      25.0000006 magnetization       1.0000890
 augmentation part        1.0901063 magnetization       0.1083274

 DIPCOR: dipole corrections for dipol
 direction  3 min pos   269,
 dipolmoment           0.000000      0.000000      0.051058 electrons x Angstroem
 Tr[quadrupol]      -439.391827

 energy correction for charged system         0.000000 eV
 dipol+quadrupol energy correction           -0.000136 eV
 added-field ion interaction         -0.893429 eV  (added to PSCEN)


 Broyden mixing:
  rms(total) = 0.54677E-04    rms(broyden)= 0.54674E-04
  rms(prec ) = 0.68715E-04
  weight for this iteration     100.00

 eigenvalues of (default mixing * dielectric matrix)
  average eigenvalue GAMMA=   2.3333
 13.9668  9.9730  4.3223  3.5350  2.3931  2.3931  1.5663  1.5663  1.0208  1.0208
  1.0429  1.0429  0.9190  0.9190  0.8264  0.8264  0.7612  0.6852  0.6852  0.6189
  0.6216  0.6255

 Free energy of the ion-electron system (eV)
  ---------------------------------------------------
  alpha Z        PSCENC =         0.50127261
  Ewald energy   TEWEN  =      1916.85549914
  -Hartree energ DENC   =     -3260.30666752
  -exchange      EXHF   =         0.00000000
  -V(xc)+E(xc)   XCENC  =       101.03406015
  PAW double counting   =      4020.75751059    -4023.26959687
  entropy T*S    EENTRO =        -0.00000000
  eigenvalues    EBANDS =      -368.28049124
  atomic energy  EATOM  =      1586.38675303
  Solvation  Ecorr_sol  =         0.00000000
  ---------------------------------------------------
  free energy    TOTEN  =       -26.32166010 eV

  energy without entropy =      -26.32166010  energy(sigma->0) =      -26.32166010


--------------------------------------------------------------------------------------------------------




--------------------------------------- Iteration      1(  28)  ---------------------------------------


    POTLOK:  cpu time    0.7271: real time    0.7318
    SETDIJ:  cpu time    0.0116: real time    0.0117
    EDDIAG:  cpu time    0.1390: real time    0.1396
  RMM-DIIS:  cpu time    0.3679: real time    0.3697
    ORTHCH:  cpu time    0.0097: real time    0.0097
       DOS:  cpu time    0.0001: real time    0.0001
    CHARGE:  cpu time    0.0907: real time    0.0912
    MIXING:  cpu time    0.0356: real time    0.0358
    --------------------------------------------
      LOOP:  cpu time    1.3817: real time    1.3898

 eigenvalue-minimisations  :    52
 total energy-change (2. order) :-0.3597963E-04  (-0.9270336E-07)
 number of electron      25.0000006 magnetization       1.0000411
 augmentation part        1.0901081 magnetization       0.1082802

 DIPCOR: dipole corrections for dipol
 direction  3 min pos   269,
 dipolmoment           0.000000      0.000000      0.050944 electrons x Angstroem
 Tr[quadrupol]      -439.391558

 energy correction for charged system         0.000000 eV
 dipol+quadrupol energy correction           -0.000135 eV
 added-field ion interaction         -0.891425 eV  (added to PSCEN)


 Broyden mixing:
  rms(total) = 0.29141E-04    rms(broyden)= 0.29136E-04
  rms(prec ) = 0.38246E-04
  weight for this iteration     100.00

 eigenvalues of (default mixing * dielectric matrix)
  average eigenvalue GAMMA=   2.3315
 13.9774  9.9847  4.7175  3.8349  2.4714  2.4714  1.9349  1.5758  1.3153  1.0229
  1.0229  0.9573  0.9573  0.9609  0.8224  0.8224  0.8367  0.7298  0.6869  0.6538
  0.6172  0.6227  0.6288

 Free energy of the ion-electron system (eV)
  ---------------------------------------------------
  alpha Z        PSCENC =         0.50327756
  Ewald energy   TEWEN  =      1916.85549914
  -Hartree energ DENC   =     -3260.31059927
  -exchange      EXHF   =         0.00000000
  -V(xc)+E(xc)   XCENC  =       101.03401061
  PAW double counting   =      4020.73596615    -4023.24802220
  entropy T*S    EENTRO =        -0.00000000
  eigenvalues    EBANDS =      -368.27858110
  atomic energy  EATOM  =      1586.38675303
  Solvation  Ecorr_sol  =         0.00000000
  ---------------------------------------------------
  free energy    TOTEN  =       -26.32169608 eV

  energy without entropy =      -26.32169608  energy(sigma->0) =      -26.32169608


--------------------------------------------------------------------------------------------------------




--------------------------------------- Iteration      1(  29)  ---------------------------------------


    POTLOK:  cpu time    0.7288: real time    0.7335
    SETDIJ:  cpu time    0.0122: real time    0.0122
    EDDIAG:  cpu time    0.1362: real time    0.1369
  RMM-DIIS:  cpu time    0.3631: real time    0.3648
    ORTHCH:  cpu time    0.0096: real time    0.0096
       DOS:  cpu time    0.0002: real time    0.0002
    --------------------------------------------
      LOOP:  cpu time    1.2500: real time    1.2572

 eigenvalue-minimisations  :    49
 total energy-change (2. order) :-0.9737500E-05  (-0.4781439E-07)
 number of electron      25.0000006 magnetization       1.0000411
 augmentation part        1.0901081 magnetization       0.1082802

 DIPCOR: dipole corrections for dipol
 direction  3 min pos   269,
 dipolmoment           0.000000      0.000000      0.050798 electrons x Angstroem
 Tr[quadrupol]      -439.391462

 energy correction for charged system         0.000000 eV
 dipol+quadrupol energy correction           -0.000134 eV
 added-field ion interaction         -0.888884 eV  (added to PSCEN)


 Free energy of the ion-electron system (eV)
  ---------------------------------------------------
  alpha Z        PSCENC =         0.50581950
  Ewald energy   TEWEN  =      1916.85549914
  -Hartree energ DENC   =     -3260.31327316
  -exchange      EXHF   =         0.00000000
  -V(xc)+E(xc)   XCENC  =       101.03401142
  PAW double counting   =      4020.74408873    -4023.25613838
  entropy T*S    EENTRO =        -0.00000000
  eigenvalues    EBANDS =      -368.27846610
  atomic energy  EATOM  =      1586.38675303
  Solvation  Ecorr_sol  =         0.00000000
  ---------------------------------------------------
  free energy    TOTEN  =       -26.32170582 eV

  energy without entropy =      -26.32170582  energy(sigma->0) =      -26.32170582


--------------------------------------------------------------------------------------------------------




 average (electrostatic) potential at core
  the test charge radii are     0.9698  0.7215  0.5201
  (the norm of the test charge is              1.0000)
       1-100.5992       2 -81.1880       3 -81.2687       4 -82.4542       5 -46.0476
 
 
 
 E-fermi :  -6.8723     XC(G=0):  -0.6300     alpha+bet : -0.2982


 spin component 1

 k-point     1 :       0.0000    0.0000    0.0000
  band No.  band energies     occupation 
      1     -29.1400      1.00000
      2     -26.4914      1.00000
      3     -25.9016      1.00000
      4     -16.9932      1.00000
      5     -13.7775      1.00000
      6     -12.3359      1.00000
      7     -12.0920      1.00000
      8     -11.0624      1.00000
      9      -9.4709      1.00000
     10      -8.7096      1.00000
     11      -8.5363      1.00000
     12      -7.9231      1.00000
     13      -6.9096      1.00000
     14      -0.9942      0.00000
     15      -0.3615      0.00000
     16       0.0440      0.00000
     17       0.1888      0.00000
     18       0.4436      0.00000
     19       0.6062      0.00000
     20       1.0945      0.00000

 spin component 2

 k-point     1 :       0.0000    0.0000    0.0000
  band No.  band energies     occupation 
      1     -28.9015      1.00000
      2     -26.2433      1.00000
      3     -25.5459      1.00000
      4     -16.6511      1.00000
      5     -13.4187      1.00000
      6     -11.9872      1.00000
      7     -11.7959      1.00000
      8     -10.7809      1.00000
      9      -9.1898      1.00000
     10      -8.5546      1.00000
     11      -8.1201      1.00000
     12      -7.7463      1.00000
     13      -5.6727      0.00000
     14      -0.8566      0.00000
     15      -0.0790      0.00000
     16       0.1946      0.00000
     17       0.2350      0.00000
     18       0.5802      0.00000
     19       0.6937      0.00000
     20       0.9052      0.00000


--------------------------------------------------------------------------------------------------------


 soft charge-density along one line, spin component           1
         0         1         2         3         4         5         6         7         8         9
 total charge-density along one line
 
 soft charge-density along one line, spin component           2
         0         1         2         3         4         5         6         7         8         9
 total charge-density along one line
 
 pseudopotential strength for first ion, spin component:           1
 43.956  50.487  -0.007   0.021   0.029  -0.010   0.028   0.040
 50.487  57.992  -0.008   0.024   0.034  -0.011   0.032   0.046
 -0.007  -0.008   8.943   0.002   0.002  12.110   0.003   0.003
  0.021   0.024   0.002   8.948  -0.008   0.003  12.118  -0.011
  0.029   0.034   0.002  -0.008   8.936   0.003  -0.011  12.101
 -0.010  -0.011  12.110   0.003   0.003  16.419   0.004   0.004
  0.028   0.032   0.003  12.118  -0.011   0.004  16.429  -0.015
  0.040   0.046   0.003  -0.011  12.101   0.004  -0.015  16.406
 pseudopotential strength for first ion, spin component:           2
 43.896  50.419   0.008   0.121   0.005   0.010   0.165   0.007
 50.419  57.914   0.009   0.139   0.006   0.012   0.189   0.008
  0.008   0.009   8.951  -0.008   0.006  12.120  -0.010   0.008
  0.121   0.139  -0.008   8.881   0.007  -0.010  12.028   0.009
  0.005   0.006   0.006   0.007   8.934   0.008   0.009  12.097
  0.010   0.012  12.120  -0.010   0.008  16.430  -0.014   0.010
  0.165   0.189  -0.010  12.028   0.009  -0.014  16.309   0.012
  0.007   0.008   0.008   0.009  12.097   0.010   0.012  16.401
 total augmentation occupancy for first ion, spin component:           1
 51.487 -42.263   1.464   8.957  -2.836  -0.806  -4.162   1.687
-42.263  35.924  -1.212  -7.559   2.250   0.645   3.310  -1.313
  1.464  -1.212  11.334  -0.421   1.011  -5.930   0.256  -0.619
  8.957  -7.559  -0.421   4.281  -0.466   0.260  -1.590   0.282
 -2.836   2.250   1.011  -0.466   8.116  -0.617   0.299  -4.000
 -0.806   0.645  -5.930   0.260  -0.617   3.290  -0.141   0.376
 -4.162   3.310   0.256  -1.590   0.299  -0.141   0.790  -0.214
  1.687  -1.313  -0.619   0.282  -4.000   0.376  -0.214   2.109
 total augmentation occupancy for first ion, spin component:           2
  6.494  -6.096   0.029   0.146  -0.020   0.102   0.696  -0.199
 -6.096   5.757  -0.026  -0.155   0.012  -0.104  -0.690   0.204
  0.029  -0.026   0.233  -0.030   0.032  -0.149   0.024  -0.021
  0.146  -0.155  -0.030  -0.031   0.030   0.029   0.077  -0.038
 -0.020   0.012   0.032   0.030   0.115  -0.020  -0.020  -0.074
  0.102  -0.104  -0.149   0.029  -0.020   0.085  -0.001   0.007
  0.696  -0.690   0.024   0.077  -0.020  -0.001   0.051  -0.012
 -0.199   0.204  -0.021  -0.038  -0.074   0.007  -0.012   0.049


------------------------ aborting loop because EDIFF is reached ----------------------------------------


    CHARGE:  cpu time    0.0890: real time    0.0896
    FORLOC:  cpu time    0.0317: real time    0.0319
    FORNL :  cpu time    0.2217: real time    0.2227
    STRESS:  cpu time    0.6427: real time    0.6459
    FORCOR:  cpu time    0.6956: real time    0.6991
    FORHAR:  cpu time    0.0911: real time    0.0916
    MIXING:  cpu time    0.0320: real time    0.0321
    OFIELD:  cpu time    0.0001: real time    0.0001

  FORCE on cell =-STRESS in cart. coord.  units (eV):
  Direction    XX          YY          ZZ          XY          YZ          ZX
  --------------------------------------------------------------------------------------
  Alpha Z     1.39484     1.39484     1.39484
  Ewald    1960.16040  2093.25824 -2136.56326    12.25934   -94.71385    44.19770
  Hartree  2361.67492  2377.74914 -1479.10339     2.34954   -42.68556    30.28705
  E(xc)    -114.55475  -114.10936  -115.46685     0.04420    -0.25246     0.08871
  Local   -4696.71606 -4821.46243  3225.26535   -13.75723   126.30870   -71.50782
  n-local    -8.80519    -3.57920    -6.61078     0.68101    -0.03235    -1.20445
  augment     3.60161     2.09545     2.80392    -0.00678     0.50716    -0.07656
  Kinetic   493.71624   464.22262   507.38763    -1.42591    10.70933    -1.41700
  Fock        0.00000     0.00000     0.00000     0.00000     0.00000     0.00000
  -------------------------------------------------------------------------------------
  Total       0.47201    -0.43070    -0.89254     0.14416    -0.15903     0.36763
  in kB       0.43466    -0.39663    -0.82192     0.13276    -0.14645     0.33854
  external pressure =       -0.26 kB  Pullay stress =        0.00 kB


 VOLUME and BASIS-vectors are now :
 -----------------------------------------------------------------------------
  energy-cutoff  :      544.00
  volume of cell :     1739.83
      direct lattice vectors                 reciprocal lattice vectors
     8.315596000  0.000000000  0.000000000     0.120255962 -0.069429620  0.000000000
     4.157788000  7.201520000  0.000000000     0.000000000  0.138859574  0.000000000
     0.000000000  0.000000000 29.052834000     0.000000000  0.000000000  0.034420050

  length of vectors
     8.315596000  8.315593266 29.052834000     0.138859528  0.138859574  0.034420050


 FORCES acting on ions
    electron-ion (+dipol)            ewald-force                    non-local-force                 convergence-correction
 -----------------------------------------------------------------------------------------------
   -.108E+02 0.192E+02 0.234E+03   0.305E+01 -.178E+02 -.239E+03   0.700E+01 -.715E+00 0.694E+01   -.189E-03 -.465E-04 -.381E-03
   0.725E+02 -.298E+03 -.293E+02   -.817E+02 0.346E+03 0.405E+02   0.938E+01 -.481E+02 -.120E+02   -.153E-03 -.388E-04 -.143E-03
   0.208E+03 0.216E+03 -.773E+02   -.240E+03 -.251E+03 0.945E+02   0.322E+02 0.346E+02 -.177E+02   0.197E-04 0.112E-03 -.831E-04
   -.257E+03 0.134E+02 -.550E+02   0.289E+03 0.168E+02 0.543E+02   -.315E+02 -.308E+02 0.883E+00   0.750E-04 -.153E-03 0.162E-04
   -.297E+02 0.868E+02 -.472E+02   0.302E+02 -.935E+02 0.501E+02   -.623E+00 0.708E+01 -.319E+01   0.188E-05 -.285E-04 0.287E-04
 -----------------------------------------------------------------------------------------------
   -.165E+02 0.380E+02 0.250E+02   -.213E-13 0.426E-13 0.000E+00   0.165E+02 -.380E+02 -.250E+02   -.245E-03 -.155E-03 -.562E-03
 
 
 POSITION                                       TOTAL-FORCE (eV/Angst)
 -----------------------------------------------------------------------------------
      6.70917      2.55699      9.18531        -0.761486      0.680949      1.435371
      6.44556      3.95346      9.54127         0.171092     -0.184467     -0.758601
      5.81009      1.53695      9.72353         0.106913     -0.327415     -0.496831
      8.19340      2.27763      9.78336         0.589455     -0.628596      0.192937
      8.23909      1.36518     10.17629        -0.105974      0.459530     -0.372876
 -----------------------------------------------------------------------------------
    total drift:                                0.000381      0.004502     -0.000167


--------------------------------------------------------------------------------------------------------



  FREE ENERGIE OF THE ION-ELECTRON SYSTEM (eV)
  ---------------------------------------------------
  free  energy   TOTEN  =       -26.32170582 eV

  energy  without entropy=      -26.32170582  energy(sigma->0) =      -26.32170582
 


--------------------------------------------------------------------------------------------------------


    POTLOK:  cpu time    0.7432: real time    0.7470


--------------------------------------------------------------------------------------------------------


 stress matrix after NEB project (eV)
      0.47201      0.14416      0.36763
      0.14416     -0.43070     -0.15903
      0.36763     -0.15903     -0.89254
  FORCES: max atom, RMS     1.761773    1.024631
  FORCE total and by dimension    2.291144    1.435371
  Stress total and by dimension    1.251943    0.892536
     LOOP+:  cpu time   44.8327: real time   45.1021
    4ORBIT:  cpu time    0.0000: real time    0.0000

 total amount of memory used by VASP MPI-rank0   113803. kBytes
=======================================================================

   base      :      30000. kBytes
   nonlr-proj:        665. kBytes
   fftplans  :      22218. kBytes
   grid      :      58900. kBytes
   one-center:         12. kBytes
   wavefun   :       2008. kBytes
 
  
  
 General timing and accounting informations for this job:
 ========================================================
  
                  Total CPU time used (sec):       46.788
                            User time (sec):       45.595
                          System time (sec):        1.193
                         Elapsed time (sec):       47.614
  
                   Maximum memory used (kb):      254916.
                   Average memory used (kb):           0.
  
                          Minor page faults:       301546
                          Major page faults:           19
                 Voluntary context switches:         1470
