 vasp.5.4.4.18Apr17-6-g9f103f2a35 (build Sep 01 2024 22:12:51) complex          
  
 executed on             LinuxIFC date 2024.09.23  16:48:18
 running on   16 total cores
 distrk:  each k-point on   16 cores,    1 groups
 distr:  one band on NCORES_PER_BAND=   4 cores,    4 groups


--------------------------------------------------------------------------------------------------------


 INCAR:
 POTCAR:    PAW_PBE S 06Sep2000                   
 POTCAR:    PAW_PBE O 08Apr2002                   
 POTCAR:    PAW_PBE H 15Jun2001                   
 POTCAR:    PAW_PBE S 06Sep2000                   
   SHA256 =  0fc7481fb0695f01bdc6462160264c5c84044ae9ec85a907d398b887a2bc3132 S/
   COPYR  = (c) Copyright 06Sep2000 Georg Kresse                                
   COPYR  = This file is part of the software VASP. Any use, copying, and all ot
   COPYR  = If you do not have a valid VASP license, you may not use, copy or di
   VRHFIN =S : s2p4                                                             
   LEXCH  = PE                                                                  
   EATOM  =   276.8230 eV,   20.3459 Ry                                         
                                                                                
   TITEL  = PAW_PBE S 06Sep2000                                                 
   LULTRA =        F    use ultrasoft PP ?                                      
   IUNSCR =        1    unscreen: 0-lin 1-nonlin 2-no                           
   RPACOR =    1.500    partial core radius                                     
   POMASS =   32.066; ZVAL   =    6.000    mass and valenz                      
   RCORE  =    1.900    outmost cutoff radius                                   
   RWIGS  =    2.200; RWIGS  =    1.164    wigner-seitz radius (au A)           
   ENMAX  =  258.689; ENMIN  =  194.016 eV                                      
   ICORE  =        2    local potential                                         
   LCOR   =        T    correct aug charges                                     
   LPAW   =        T    paw PP                                                  
   EAUG   =  335.092                                                            
   DEXC   =    0.000                                                            
   RMAX   =    1.942    core radius for proj-oper                               
   RAUG   =    1.300    factor for augmentation sphere                          
   RDEP   =    1.954    radius for radial grids                                 
   RDEPT  =    1.744    core radius for aug-charge                              
                                                                                
   Atomic configuration                                                         
    6 entries                                                                   
     n  l   j            E        occ.                                          
     1  0  0.50     -2405.8406   2.0000                                         
     2  0  0.50      -211.7007   2.0000                                         
     2  1  1.50      -156.4958   6.0000                                         
     3  0  0.50       -17.2562   2.0000                                         
     3  1  0.50        -7.0085   4.0000                                         
     3  2  1.50        -6.8029   0.0000                                         
   Description                                                                  
     l       E           TYP  RCUT    TYP  RCUT                                 
     0    -17.2561641     23  1.900                                             
     0    -15.8743224     23  1.900                                             
     1     -7.0085400     23  1.900                                             
     1     -2.7779785     23  1.900                                             
     2     -6.8029130     23  1.900                                             
  local pseudopotential read in
  partial core-charges read in
  partial kinetic energy density read in
  atomic valenz-charges read in
  non local Contribution for L=           0  read in
    real space projection operators read in
  non local Contribution for L=           0  read in
    real space projection operators read in
  non local Contribution for L=           1  read in
    real space projection operators read in
  non local Contribution for L=           1  read in
    real space projection operators read in
    PAW grid and wavefunctions read in
 
   number of l-projection  operators is LMAX  =           4
   number of lm-projection operators is LMMAX =           8
 
 POTCAR:    PAW_PBE O 08Apr2002                   
   SHA256 =  818f92134a0a090dccd8ba1447fa70422a3b330e708bb4f08108d8ae51209ddf O/
   COPYR  = (c) Copyright 08Apr2002 Georg Kresse                                
   COPYR  = This file is part of the software VASP. Any use, copying, and all ot
   COPYR  = If you do not have a valid VASP license, you may not use, copy or di
   VRHFIN =O: s2p4                                                              
   LEXCH  = PE                                                                  
   EATOM  =   432.3788 eV,   31.7789 Ry                                         
                                                                                
   TITEL  = PAW_PBE O 08Apr2002                                                 
   LULTRA =        F    use ultrasoft PP ?                                      
   IUNSCR =        1    unscreen: 0-lin 1-nonlin 2-no                           
   RPACOR =    1.200    partial core radius                                     
   POMASS =   16.000; ZVAL   =    6.000    mass and valenz                      
   RCORE  =    1.520    outmost cutoff radius                                   
   RWIGS  =    1.550; RWIGS  =    0.820    wigner-seitz radius (au A)           
   ENMAX  =  400.000; ENMIN  =  300.000 eV                                      
   ICORE  =        2    local potential                                         
   LCOR   =        T    correct aug charges                                     
   LPAW   =        T    paw PP                                                  
   EAUG   =  605.392                                                            
   DEXC   =    0.000                                                            
   RMAX   =    1.553    core radius for proj-oper                               
   RAUG   =    1.300    factor for augmentation sphere                          
   RDEP   =    1.550    radius for radial grids                                 
   RDEPT  =    1.329    core radius for aug-charge                              
                                                                                
   Atomic configuration                                                         
    4 entries                                                                   
     n  l   j            E        occ.                                          
     1  0  0.50      -514.6923   2.0000                                         
     2  0  0.50       -23.9615   2.0000                                         
     2  1  0.50        -9.0305   4.0000                                         
     3  2  1.50        -9.5241   0.0000                                         
   Description                                                                  
     l       E           TYP  RCUT    TYP  RCUT                                 
     0    -23.9615318     23  1.200                                             
     0     -9.5240782     23  1.200                                             
     1     -9.0304911     23  1.520                                             
     1      8.1634956     23  1.520                                             
     2     -9.5240782      7  1.500                                             
  local pseudopotential read in
  partial core-charges read in
  partial kinetic energy density read in
  kinetic energy density of atom read in
  atomic valenz-charges read in
  non local Contribution for L=           0  read in
    real space projection operators read in
  non local Contribution for L=           0  read in
    real space projection operators read in
  non local Contribution for L=           1  read in
    real space projection operators read in
  non local Contribution for L=           1  read in
    real space projection operators read in
    PAW grid and wavefunctions read in
 
   number of l-projection  operators is LMAX  =           4
   number of lm-projection operators is LMMAX =           8
 
 POTCAR:    PAW_PBE H 15Jun2001                   
   SHA256 =  030f79b5d3ab3cf0e668861823c8fb652ff669f3e15e46930bd03bfd63a607b6 H/
   COPYR  = (c) Copyright 15Jun2001 Georg Kresse                                
   COPYR  = This file is part of the software VASP. Any use, copying, and all ot
   COPYR  = If you do not have a valid VASP license, you may not use, copy or di
   VRHFIN =H: ultrasoft test                                                    
   LEXCH  = PE                                                                  
   EATOM  =    12.4884 eV,    0.9179 Ry                                         
                                                                                
   TITEL  = PAW_PBE H 15Jun2001                                                 
   LULTRA =        F    use ultrasoft PP ?                                      
   IUNSCR =        0    unscreen: 0-lin 1-nonlin 2-no                           
   RPACOR =    0.000    partial core radius                                     
   POMASS =    1.000; ZVAL   =    1.000    mass and valenz                      
   RCORE  =    1.100    outmost cutoff radius                                   
   RWIGS  =    0.700; RWIGS  =    0.370    wigner-seitz radius (au A)           
   ENMAX  =  250.000; ENMIN  =  200.000 eV                                      
   RCLOC  =    0.701    cutoff for local pot                                    
   LCOR   =        T    correct aug charges                                     
   LPAW   =        T    paw PP                                                  
   EAUG   =  400.000                                                            
   RMAX   =    1.123    core radius for proj-oper                               
   RAUG   =    1.200    factor for augmentation sphere                          
   RDEP   =    1.112    radius for radial grids                                 
   RDEPT  =    0.926    core radius for aug-charge                              
                                                                                
   Atomic configuration                                                         
    2 entries                                                                   
     n  l   j            E        occ.                                          
     1  0  0.50        -6.4927   1.0000                                         
     2  1  0.50        -3.4015   0.0000                                         
   Description                                                                  
     l       E           TYP  RCUT    TYP  RCUT                                 
     0     -6.4927494     23  1.100                                             
     0      6.8029130     23  1.100                                             
     1     -4.0817478     23  1.100                                             
  local pseudopotential read in
  atomic valenz-charges read in
  non local Contribution for L=           0  read in
    real space projection operators read in
  non local Contribution for L=           0  read in
    real space projection operators read in
  non local Contribution for L=           1  read in
    real space projection operators read in
    PAW grid and wavefunctions read in
 
   number of l-projection  operators is LMAX  =           3
   number of lm-projection operators is LMMAX =           5
 

 ----------------------------------------------------------------------------- 
|                                                                             |
|  ADVICE TO THIS USER RUNNING 'VASP/VAMP'   (HEAR YOUR MASTER'S VOICE ...):  |
|                                                                             |
|      You have a (more or less) 'small supercell' and for smaller cells      |
|      it is recommended  to use the reciprocal-space projection scheme!      |
|      The real space optimization is not  efficient for small cells and it   |
|      is also less accurate ...                                              |
|      Therefore set LREAL=.FALSE. in the  INCAR file                         |
|                                                                             |
 ----------------------------------------------------------------------------- 

 Optimization of the real space projectors (new method)

 maximal supplied QI-value         = 19.84
 optimisation between [QCUT,QGAM] = [ 11.91, 23.81] = [ 39.69,158.76] Ry 
 Optimized for a Real-space Cutoff    1.22 Angstroem

   l    n(q)    QCUT    max X(q) W(low)/X(q) W(high)/X(q)  e(spline) 
   0      9    11.905   187.594    0.11E-03    0.12E-03    0.65E-07
   0      9    11.905   164.243    0.11E-03    0.12E-03    0.65E-07
   1      8    11.905    67.533    0.15E-03    0.59E-04    0.88E-07
   1      8    11.905    50.729    0.15E-03    0.59E-04    0.86E-07
 Optimization of the real space projectors (new method)

 maximal supplied QI-value         = 24.76
 optimisation between [QCUT,QGAM] = [ 11.88, 23.77] = [ 39.54,158.16] Ry 
 Optimized for a Real-space Cutoff    1.18 Angstroem

   l    n(q)    QCUT    max X(q) W(low)/X(q) W(high)/X(q)  e(spline) 
   0      8    11.883    20.381    0.77E-04    0.16E-03    0.31E-06
   0      8    11.883    15.268    0.85E-04    0.17E-03    0.34E-06
   1      8    11.883     5.964    0.17E-03    0.30E-04    0.33E-06
   1      8    11.883     5.382    0.15E-03    0.14E-04    0.29E-06
 Optimization of the real space projectors (new method)

 maximal supplied QI-value         = 34.20
 optimisation between [QCUT,QGAM] = [ 11.63, 23.60] = [ 37.87,155.98] Ry 
 Optimized for a Real-space Cutoff    1.18 Angstroem

   l    n(q)    QCUT    max X(q) W(low)/X(q) W(high)/X(q)  e(spline) 
   0      8    11.629    19.460    0.14E-03    0.39E-03    0.21E-06
   0      8    11.629    12.209    0.12E-03    0.36E-03    0.20E-06
   1      8    11.629     4.655    0.22E-03    0.17E-03    0.23E-06
  PAW_PBE S 06Sep2000                   :
 energy of atom  1       EATOM= -276.8230
 kinetic energy error for atom=    0.0012 (will be added to EATOM!!)
  PAW_PBE O 08Apr2002                   :
 energy of atom  2       EATOM= -432.3788
 kinetic energy error for atom=    0.0196 (will be added to EATOM!!)
  PAW_PBE H 15Jun2001                   :
 energy of atom  3       EATOM=  -12.4884
 kinetic energy error for atom=    0.0009 (will be added to EATOM!!)
 
 
 POSCAR:  S  O  H                                
  positions in cartesian coordinates
  No initial velocities read in
 exchange correlation table for  LEXCH =        8
   RHO(1)=    0.500       N(1)  =     2000
   RHO(2)=  100.500       N(2)  =     4000

 VTST: version 3.2, (02/03/18)

 CHAIN: initializing optimizer
 
 OPT: Using VASP Dynamics algorithm
 CHAIN: Read ICHAIN            0
 
 POSCAR:  S  O  H                                
  positions in cartesian coordinates
  No initial velocities read in
 


--------------------------------------------------------------------------------------------------------


 ion  position               nearest neighbor table
   1  0.444  0.438  0.328-   5 1.48   2 1.49   3 1.49   4 1.57
   2  0.345  0.637  0.315-   1 1.49
   3  0.642  0.339  0.313-   1 1.49
   4  0.441  0.426  0.382-   6 1.00   1 1.57
   5  0.343  0.340  0.314-   1 1.48
   6  0.515  0.476  0.397-   4 1.00
 

IMPORTANT INFORMATION: All symmetrisations will be switched off!
NOSYMM: (Re-)initialisation of all symmetry stuff for point group C_1.

 
 
 KPOINTS: K-Point Grid                            

Automatic generation of k-mesh.
Space group operators:
 irot       det(A)        alpha          n_x          n_y          n_z        tau_x        tau_y        tau_z
    1     1.000000     0.000000     1.000000     0.000000     0.000000     0.000000     0.000000     0.000000
 
 Subroutine IBZKPT returns following result:
 ===========================================
 
 Found      1 irreducible k-points:
 
 Following reciprocal coordinates:
            Coordinates               Weight
  0.000000  0.000000  0.000000      1.000000
 
 Following cartesian coordinates:
            Coordinates               Weight
  0.000000  0.000000  0.000000      1.000000
 


--------------------------------------------------------------------------------------------------------




 Dimension of arrays:
   k-points           NKPTS =      1   k-points in BZ     NKDIM =      1   number of bands    NBANDS=     24
   number of dos      NEDOS =    301   number of ions     NIONS =      6
   non local maximal  LDIM  =      4   non local SUM 2l+1 LMDIM =      8
   total plane-waves  NPLWV = 917504
   max r-space proj   IRMAX =   4054   max aug-charges    IRDMAX=  16812
   dimension x,y,z NGX =    64 NGY =   64 NGZ =  224
   dimension x,y,z NGXF=   128 NGYF=  128 NGZF=  448
   support grid    NGXF=   128 NGYF=  128 NGZF=  448
   ions per type =               1   4   1
   NGX,Y,Z   is equivalent  to a cutoff of  12.79, 12.79, 12.82 a.u.
   NGXF,Y,Z  is equivalent  to a cutoff of  25.59, 25.59, 25.64 a.u.

 SYSTEM =  DIPOLE RUNS                             
 POSCAR =   S  O  H                                

 Startparameter for this run:
   NWRITE =      2    write-flag & timer
   PREC   = accura    normal or accurate (medium, high low for compatibility)
   ISTART =      0    job   : 0-new  1-cont  2-samecut
   ICHARG =      2    charge: 1-file 2-atom 10-const
   ISPIN  =      2    spin polarized calculation?
   LNONCOLLINEAR =      F non collinear calculations
   LSORBIT =      F    spin-orbit coupling
   INIWAV =      1    electr: 0-lowe 1-rand  2-diag
   LASPH  =      F    aspherical Exc in radial PAW
   METAGGA=      F    non-selfconsistent MetaGGA calc.

 Electronic Relaxation 1
   ENCUT  =  544.0 eV  39.98 Ry    6.32 a.u.  15.81 15.81 55.25*2*pi/ulx,y,z
   ENINI  =  544.0     initial cutoff
   ENAUG  =  605.4 eV  augmentation charge cutoff
   NELM   =    400;   NELMIN=  2; NELMDL= -5     # of ELM steps 
   EDIFF  = 0.1E-04   stopping-criterion for ELM
   LREAL  =      T    real-space projection
   NLSPLINE    = F    spline interpolate recip. space projectors
   LCOMPAT=      F    compatible to vasp.4.4
   GGA_COMPAT  = T    GGA compatible to vasp.4.4-vasp.4.6
   LMAXPAW     = -100 max onsite density
   LMAXMIX     =    2 max onsite mixed and CHGCAR
   VOSKOWN=      0    Vosko Wilk Nusair interpolation
   ROPT   =   -0.00025  -0.00025  -0.00025
 Ionic relaxation
   EDIFFG = -.1E-01   stopping-criterion for IOM
   NSW    =      0    number of steps for IOM
   NBLOCK =      1;   KBLOCK =      1    inner block; outer block 
   IBRION =     -1    ionic relax: 0-MD 1-quasi-New 2-CG
   NFREE  =      0    steps in history (QN), initial steepest desc. (CG)
   ISIF   =      2    stress and relaxation
   IWAVPR =     10    prediction:  0-non 1-charg 2-wave 3-comb
   ISYM   =      0    0-nonsym 1-usesym 2-fastsym
   LCORR  =      T    Harris-Foulkes like correction to forces

   POTIM  = 0.5000    time-step for ionic-motion
   TEIN   =    0.0    initial temperature
   TEBEG  =    0.0;   TEEND  =   0.0 temperature during run
   SMASS  =  -3.00    Nose mass-parameter (am)
   estimated Nose-frequenzy (Omega)   =  0.10E-29 period in steps =****** mass=  -0.158E-26a.u.
   SCALEE = 1.0000    scale energy and forces
   NPACO  =    256;   APACO  = 16.0  distance and # of slots for P.C.
   PSTRESS=    0.0 pullay stress

  Mass of Ions in am
   POMASS =  32.07 16.00  1.00
  Ionic Valenz
   ZVAL   =   6.00  6.00  1.00
  Atomic Wigner-Seitz radii
   RWIGS  =  -1.00 -1.00 -1.00
  virtual crystal weights 
   VCA    =   1.00  1.00  1.00
   NELECT =      31.0000    total number of electrons
   NUPDOWN=      -1.0000    fix difference up-down

 DOS related values:
   EMIN   =  10.00;   EMAX   =-10.00  energy-range for DOS
   EFERMI =   0.00
   ISMEAR =     0;   SIGMA  =   0.00  broadening in eV -4-tet -1-fermi 0-gaus

 Electronic relaxation 2 (details)
   IALGO  =     68    algorithm
   LDIAG  =      T    sub-space diagonalisation (order eigenvalues)
   LSUBROT=      F    optimize rotation matrix (better conditioning)
   TURBO    =      0    0=normal 1=particle mesh
   IRESTART =      0    0=no restart 2=restart with 2 vectors
   NREBOOT  =      0    no. of reboots
   NMIN     =      0    reboot dimension
   EREF     =   0.00    reference energy to select bands
   IMIX   =      4    mixing-type and parameters
     AMIX     =   0.40;   BMIX     =  1.00
     AMIX_MAG =   1.60;   BMIX_MAG =  1.00
     AMIN     =   0.10
     WC   =   100.;   INIMIX=   1;  MIXPRE=   1;  MAXMIX= -45

 Intra band minimization:
   WEIMIN = 0.0000     energy-eigenvalue tresh-hold
   EBREAK =  0.10E-06  absolut break condition
   DEPER  =   0.30     relativ break condition  

   TIME   =   0.40     timestep for ELM

  volume/ion in A,a.u.               =     289.97      1956.82
  Fermi-wavevector in a.u.,A,eV,Ry     =   0.427589  0.808026  2.487587  0.182833
  Thomas-Fermi vector in A             =   1.394335
 
 Write flags
   LWAVE        =      F    write WAVECAR
   LDOWNSAMPLE  =      F    k-point downsampling of WAVECAR
   LCHARG       =      F    write CHGCAR
   LVTOT        =      F    write LOCPOT, total local potential
   LVHAR        =      F    write LOCPOT, Hartree potential only
   LELF         =      F    write electronic localiz. function (ELF)
   LORBIT       =      0    0 simple, 1 ext, 2 COOP (PROOUT), +10 PAW based schemes


 Dipole corrections
   LMONO  =      F    monopole corrections only (constant potential shift)
   LDIPOL =      T    correct potential (dipole corrections)
   IDIPOL =      3    1-x, 2-y, 3-z, 4-all directions 
   EPSILON=  1.0000000 bulk dielectric constant

 Exchange correlation treatment:
   GGA     =    PE    GGA type
   LEXCH   =     8    internal setting for exchange type
   VOSKOWN=      0    Vosko Wilk Nusair interpolation
   LHFCALC =     F    Hartree Fock is set to
   LHFONE  =     F    Hartree Fock one center treatment
   AEXX    =    0.0000 exact exchange contribution

 Linear response parameters
   LEPSILON=     F    determine dielectric tensor
   LRPA    =     F    only Hartree local field effects (RPA)
   LNABLA  =     F    use nabla operator in PAW spheres
   LVEL    =     F    velocity operator in full k-point grid
   LINTERFAST=   F  fast interpolation
   KINTER  =     0    interpolate to denser k-point grid
   CSHIFT  =0.1000    complex shift for real part using Kramers Kronig
   OMEGAMAX=  -1.0    maximum frequency
   DEG_THRESHOLD= 0.2000000E-02 threshold for treating states as degnerate
   RTIME   =   -0.100 relaxation time in fs
  (WPLASMAI=    0.000 imaginary part of plasma frequency in eV, 0.658/RTIME)
   DFIELD  = 0.0000000 0.0000000 0.0000000 field for delta impulse in time
 
 Orbital magnetization related:
   ORBITALMAG=     F  switch on orbital magnetization
   LCHIMAG   =     F  perturbation theory with respect to B field
   DQ        =  0.001000  dq finite difference perturbation B field
   LLRAUG    =     F  two centre corrections for induced B field



--------------------------------------------------------------------------------------------------------


 Static calculation
 charge density and potential will be updated during run
 spin polarized calculation
 RMM-DIIS sequential band-by-band and
  variant of blocked Davidson during initial phase
 perform sub-space diagonalisation
    before iterative eigenvector-optimisation
 modified Broyden-mixing scheme, WC =      100.0
 initial mixing is a Kerker type mixing with AMIX =  0.4000 and BMIX =      1.0000
 Hartree-type preconditioning will be used
 using additional bands            8
 real space projection scheme for non local part
 use partial core corrections
 calculate Harris-corrections to forces 
   (improved forces if not selfconsistent)
 use gradient corrections 
 use of overlap-Matrix (Vanderbilt PP)
 Gauss-broadening in eV      SIGMA  =   0.00


--------------------------------------------------------------------------------------------------------


  energy-cutoff  :      544.00
  volume of cell :     1739.83
      direct lattice vectors                 reciprocal lattice vectors
     8.315596000  0.000000000  0.000000000     0.120255962 -0.069429620  0.000000000
     4.157788000  7.201520000  0.000000000     0.000000000  0.138859574  0.000000000
     0.000000000  0.000000000 29.052834000     0.000000000  0.000000000  0.034420050

  length of vectors
     8.315596000  8.315593266 29.052834000     0.138859528  0.138859574  0.034420050


 
 k-points in units of 2pi/SCALE and weight: K-Point Grid                            
   0.00000000  0.00000000  0.00000000       1.000
 
 k-points in reciprocal lattice and weights: K-Point Grid                            
   0.00000000  0.00000000  0.00000000       1.000
 
 position of ions in fractional coordinates (direct lattice) 
   0.44350771  0.43772051  0.32762952
   0.34491746  0.63749181  0.31478433
   0.64237335  0.33942779  0.31340072
   0.44099735  0.42607588  0.38163478
   0.34302024  0.33987478  0.31390876
   0.51489859  0.47639762  0.39652018
 
 position of ions in cartesian coordinates  (Angst):
   5.50798000  3.15225300  9.51856600
   5.51875000  4.59091000  9.14537700
   6.75298600  2.44439600  9.10517900
   5.43868900  3.06839400 11.08757200
   4.26554500  2.44761500  9.11993900
   6.26244900  3.43078700 11.52003500
 


--------------------------------------------------------------------------------------------------------


 k-point  1 :   0.0000 0.0000 0.0000  plane waves:   50139

 maximum and minimum number of plane-waves per node :     12536    12533

 maximum number of plane-waves:     50139
 maximum index in each direction: 
   IXMAX=   15   IYMAX=   15   IZMAX=   55
   IXMIN=  -15   IYMIN=  -15   IZMIN=  -55


 real space projection operators:
  total allocation   :       1272.30 KBytes
  max/ min on nodes  :        320.38        316.12


 parallel 3D FFT for wavefunctions:
    minimum data exchange during FFTs selected (reduces bandwidth)
 parallel 3D FFT for charge:
    minimum data exchange during FFTs selected (reduces bandwidth)


 total amount of memory used by VASP MPI-rank0   114335. kBytes
=======================================================================

   base      :      30000. kBytes
   nonlr-proj:        796. kBytes
   fftplans  :      22218. kBytes
   grid      :      58900. kBytes
   one-center:         12. kBytes
   wavefun   :       2409. kBytes
 
     INWAV:  cpu time    0.0000: real time    0.0002
 Broyden mixing: mesh for mixing (old mesh)
   NGX = 31   NGY = 31   NGZ =111
  (NGX  =128   NGY  =128   NGZ  =448)
  gives a total of 106671 points

 initial charge density was supplied:
 charge density of overlapping atoms calculated
 number of electron      31.0000000 magnetization       6.0000000
 keeping initial charge density in first step


--------------------------------------------------------------------------------------------------------


 Maximum index for non-local projection operator          973
 Maximum index for augmentation-charges         1097 (set IRDMAX)


--------------------------------------------------------------------------------------------------------


 First call to EWALD:  gamma=   0.147
 Maximum number of real-space cells 4x 4x 1
 Maximum number of reciprocal cells 2x 2x 6

    FEWALD:  cpu time    0.0013: real time    0.0013


--------------------------------------- Iteration      1(   1)  ---------------------------------------


    POTLOK:  cpu time    1.2894: real time    1.4223
    SETDIJ:  cpu time    0.0158: real time    0.0160
     EDDAV:  cpu time    1.3341: real time    1.3533
       DOS:  cpu time    0.0004: real time    0.0004
    --------------------------------------------
      LOOP:  cpu time    2.6398: real time    2.7920

 eigenvalue-minimisations  :   128
 total energy-change (2. order) : 0.2984028E+03  (-0.8442813E+03)
 number of electron      31.0000000 magnetization       6.0000000
 augmentation part       31.0000000 magnetization       6.0000000

 DIPCOR: dipole corrections for dipol
 direction  3 min pos   269,
 dipolmoment           0.000000      0.000000     -0.000195 electrons x Angstroem
 Tr[quadrupol]      -647.278408

 energy correction for charged system         0.000000 eV
 dipol+quadrupol energy correction           -0.000000 eV
 added-field ion interaction          0.004274 eV  (added to PSCEN)


 Free energy of the ion-electron system (eV)
  ---------------------------------------------------
  alpha Z        PSCENC =         2.14651781
  Ewald energy   TEWEN  =      2893.76466982
  -Hartree energ DENC   =     -4542.60298995
  -exchange      EXHF   =         0.00000000
  -V(xc)+E(xc)   XCENC  =       127.10128342
  PAW double counting   =      1604.82397798    -1608.80707449
  entropy T*S    EENTRO =        -0.00000000
  eigenvalues    EBANDS =      -196.76953329
  atomic energy  EATOM  =      2018.74592190
  Solvation  Ecorr_sol  =         0.00000000
  ---------------------------------------------------
  free energy    TOTEN  =       298.40277319 eV

  energy without entropy =      298.40277319  energy(sigma->0) =      298.40277319


--------------------------------------------------------------------------------------------------------




--------------------------------------- Iteration      1(   2)  ---------------------------------------


     EDDAV:  cpu time    1.5891: real time    1.5992
       DOS:  cpu time    0.0001: real time    0.0001
    --------------------------------------------
      LOOP:  cpu time    1.5892: real time    1.5993

 eigenvalue-minimisations  :   160
 total energy-change (2. order) :-0.2076034E+03  (-0.1950727E+03)
 number of electron      31.0000000 magnetization       6.0000000
 augmentation part       31.0000000 magnetization       6.0000000

 DIPCOR: dipole corrections for dipol
 direction  3 min pos   269,
 dipolmoment           0.000000      0.000000     -0.000195 electrons x Angstroem
 Tr[quadrupol]      -647.278408

 energy correction for charged system         0.000000 eV
 dipol+quadrupol energy correction           -0.000000 eV
 added-field ion interaction          0.004274 eV  (added to PSCEN)


 Free energy of the ion-electron system (eV)
  ---------------------------------------------------
  alpha Z        PSCENC =         2.14651781
  Ewald energy   TEWEN  =      2893.76466982
  -Hartree energ DENC   =     -4542.60298995
  -exchange      EXHF   =         0.00000000
  -V(xc)+E(xc)   XCENC  =       127.10128342
  PAW double counting   =      1604.82397798    -1608.80707449
  entropy T*S    EENTRO =        -0.00000000
  eigenvalues    EBANDS =      -404.37295373
  atomic energy  EATOM  =      2018.74592190
  Solvation  Ecorr_sol  =         0.00000000
  ---------------------------------------------------
  free energy    TOTEN  =        90.79935276 eV

  energy without entropy =       90.79935276  energy(sigma->0) =       90.79935276


--------------------------------------------------------------------------------------------------------




--------------------------------------- Iteration      1(   3)  ---------------------------------------


     EDDAV:  cpu time    1.4938: real time    1.6114
       DOS:  cpu time    0.0003: real time    0.0003
    --------------------------------------------
      LOOP:  cpu time    1.4941: real time    1.6117

 eigenvalue-minimisations  :   152
 total energy-change (2. order) :-0.1159658E+03  (-0.1135266E+03)
 number of electron      31.0000000 magnetization       6.0000000
 augmentation part       31.0000000 magnetization       6.0000000

 DIPCOR: dipole corrections for dipol
 direction  3 min pos   269,
 dipolmoment           0.000000      0.000000     -0.000195 electrons x Angstroem
 Tr[quadrupol]      -647.278408

 energy correction for charged system         0.000000 eV
 dipol+quadrupol energy correction           -0.000000 eV
 added-field ion interaction          0.004274 eV  (added to PSCEN)


 Free energy of the ion-electron system (eV)
  ---------------------------------------------------
  alpha Z        PSCENC =         2.14651781
  Ewald energy   TEWEN  =      2893.76466982
  -Hartree energ DENC   =     -4542.60298995
  -exchange      EXHF   =         0.00000000
  -V(xc)+E(xc)   XCENC  =       127.10128342
  PAW double counting   =      1604.82397798    -1608.80707449
  entropy T*S    EENTRO =        -0.00000000
  eigenvalues    EBANDS =      -520.33872509
  atomic energy  EATOM  =      2018.74592190
  Solvation  Ecorr_sol  =         0.00000000
  ---------------------------------------------------
  free energy    TOTEN  =       -25.16641860 eV

  energy without entropy =      -25.16641860  energy(sigma->0) =      -25.16641860


--------------------------------------------------------------------------------------------------------




--------------------------------------- Iteration      1(   4)  ---------------------------------------


     EDDAV:  cpu time    1.3251: real time    1.3346
       DOS:  cpu time    0.0002: real time    0.0002
    --------------------------------------------
      LOOP:  cpu time    1.3252: real time    1.3347

 eigenvalue-minimisations  :   128
 total energy-change (2. order) :-0.8363048E+01  (-0.8339876E+01)
 number of electron      31.0000000 magnetization       6.0000000
 augmentation part       31.0000000 magnetization       6.0000000

 DIPCOR: dipole corrections for dipol
 direction  3 min pos   269,
 dipolmoment           0.000000      0.000000     -0.000195 electrons x Angstroem
 Tr[quadrupol]      -647.278408

 energy correction for charged system         0.000000 eV
 dipol+quadrupol energy correction           -0.000000 eV
 added-field ion interaction          0.004274 eV  (added to PSCEN)


 Free energy of the ion-electron system (eV)
  ---------------------------------------------------
  alpha Z        PSCENC =         2.14651781
  Ewald energy   TEWEN  =      2893.76466982
  -Hartree energ DENC   =     -4542.60298995
  -exchange      EXHF   =         0.00000000
  -V(xc)+E(xc)   XCENC  =       127.10128342
  PAW double counting   =      1604.82397798    -1608.80707449
  entropy T*S    EENTRO =        -0.00000000
  eigenvalues    EBANDS =      -528.70177297
  atomic energy  EATOM  =      2018.74592190
  Solvation  Ecorr_sol  =         0.00000000
  ---------------------------------------------------
  free energy    TOTEN  =       -33.52946649 eV

  energy without entropy =      -33.52946649  energy(sigma->0) =      -33.52946649


--------------------------------------------------------------------------------------------------------




--------------------------------------- Iteration      1(   5)  ---------------------------------------


     EDDAV:  cpu time    1.3395: real time    1.3484
       DOS:  cpu time    0.0001: real time    0.0001
    CHARGE:  cpu time    0.1251: real time    0.1261
    MIXING:  cpu time    0.0366: real time    0.0368
    --------------------------------------------
      LOOP:  cpu time    1.5014: real time    1.5115

 eigenvalue-minimisations  :   128
 total energy-change (2. order) :-0.9867525E-01  (-0.9862365E-01)
 number of electron      31.0000006 magnetization       5.6425455
 augmentation part        2.2647094 magnetization       4.9108865

 DIPCOR: dipole corrections for dipol
 direction  3 min pos   269,
 dipolmoment           0.000000      0.000000     -0.000195 electrons x Angstroem
 Tr[quadrupol]      -647.278408

 energy correction for charged system         0.000000 eV
 dipol+quadrupol energy correction           -0.000000 eV
 added-field ion interaction          0.004274 eV  (added to PSCEN)


 Broyden mixing:
  rms(total) = 0.41594E+01    rms(broyden)= 0.41591E+01
  rms(prec ) = 0.41753E+01
  weight for this iteration     100.00

 Free energy of the ion-electron system (eV)
  ---------------------------------------------------
  alpha Z        PSCENC =         2.14651781
  Ewald energy   TEWEN  =      2893.76466982
  -Hartree energ DENC   =     -4542.60298995
  -exchange      EXHF   =         0.00000000
  -V(xc)+E(xc)   XCENC  =       127.10128342
  PAW double counting   =      1604.82397798    -1608.80707449
  entropy T*S    EENTRO =        -0.00000000
  eigenvalues    EBANDS =      -528.80044822
  atomic energy  EATOM  =      2018.74592190
  Solvation  Ecorr_sol  =         0.00000000
  ---------------------------------------------------
  free energy    TOTEN  =       -33.62814174 eV

  energy without entropy =      -33.62814174  energy(sigma->0) =      -33.62814174


--------------------------------------------------------------------------------------------------------




--------------------------------------- Iteration      1(   6)  ---------------------------------------


    POTLOK:  cpu time    0.9604: real time    0.9666
    SETDIJ:  cpu time    0.0191: real time    0.0192
    EDDIAG:  cpu time    0.2372: real time    0.2386
  RMM-DIIS:  cpu time    1.2710: real time    1.2790
    ORTHCH:  cpu time    0.0188: real time    0.0189
       DOS:  cpu time    0.0002: real time    0.0002
    CHARGE:  cpu time    0.1360: real time    0.1370
    MIXING:  cpu time    0.0268: real time    0.0269
    --------------------------------------------
      LOOP:  cpu time    2.6694: real time    2.6864

 eigenvalue-minimisations  :   111
 total energy-change (2. order) : 0.1609476E+02  (-0.3251474E+01)
 number of electron      31.0000005 magnetization       5.1216321
 augmentation part        1.8773551 magnetization       4.2253219

 DIPCOR: dipole corrections for dipol
 direction  3 min pos   269,
 dipolmoment           0.000000      0.000000     -0.041013 electrons x Angstroem
 Tr[quadrupol]      -648.218208

 energy correction for charged system         0.000000 eV
 dipol+quadrupol energy correction           -0.000087 eV
 added-field ion interaction          0.899723 eV  (added to PSCEN)


 Broyden mixing:
  rms(total) = 0.21150E+01    rms(broyden)= 0.21149E+01
  rms(prec ) = 0.21178E+01
  weight for this iteration     100.00

 eigenvalues of (default mixing * dielectric matrix)
  average eigenvalue GAMMA=   1.2396
  1.2396

 Free energy of the ion-electron system (eV)
  ---------------------------------------------------
  alpha Z        PSCENC =         3.04187930
  Ewald energy   TEWEN  =      2893.76466982
  -Hartree energ DENC   =     -4581.87991361
  -exchange      EXHF   =         0.00000000
  -V(xc)+E(xc)   XCENC  =       140.72317398
  PAW double counting   =      2774.28416708    -2779.01648287
  entropy T*S    EENTRO =         0.00000000
  eigenvalues    EBANDS =      -487.19679618
  atomic energy  EATOM  =      2018.74592190
  Solvation  Ecorr_sol  =         0.00000000
  ---------------------------------------------------
  free energy    TOTEN  =       -17.53338058 eV

  energy without entropy =      -17.53338058  energy(sigma->0) =      -17.53338058


--------------------------------------------------------------------------------------------------------




--------------------------------------- Iteration      1(   7)  ---------------------------------------


    POTLOK:  cpu time    0.9284: real time    1.2463
    SETDIJ:  cpu time    0.0206: real time    0.0207
    EDDIAG:  cpu time    0.2417: real time    0.2431
  RMM-DIIS:  cpu time    1.0824: real time    1.0888
    ORTHCH:  cpu time    0.0188: real time    0.0189
       DOS:  cpu time    0.0002: real time    0.0002
    CHARGE:  cpu time    0.1178: real time    0.1186
    MIXING:  cpu time    0.0291: real time    0.0292
    --------------------------------------------
      LOOP:  cpu time    2.4390: real time    2.7658

 eigenvalue-minimisations  :   111
 total energy-change (2. order) :-0.9787526E+01  (-0.1174242E+01)
 number of electron      31.0000005 magnetization       4.7741381
 augmentation part        1.6564184 magnetization       3.9339758

 DIPCOR: dipole corrections for dipol
 direction  3 min pos   269,
 dipolmoment           0.000000      0.000000     -0.099266 electrons x Angstroem
 Tr[quadrupol]      -649.637187

 energy correction for charged system         0.000000 eV
 dipol+quadrupol energy correction           -0.000512 eV
 added-field ion interaction          2.177640 eV  (added to PSCEN)


 Broyden mixing:
  rms(total) = 0.92425E+00    rms(broyden)= 0.92419E+00
  rms(prec ) = 0.92762E+00
  weight for this iteration     100.00

 eigenvalues of (default mixing * dielectric matrix)
  average eigenvalue GAMMA=   1.2445
  0.7195  1.7695

 Free energy of the ion-electron system (eV)
  ---------------------------------------------------
  alpha Z        PSCENC =         4.31937106
  Ewald energy   TEWEN  =      2893.76466982
  -Hartree energ DENC   =     -4604.13839139
  -exchange      EXHF   =         0.00000000
  -V(xc)+E(xc)   XCENC  =       134.77855652
  PAW double counting   =      4343.13111759    -4347.89125100
  entropy T*S    EENTRO =        -0.00000000
  eigenvalues    EBANDS =      -470.03090083
  atomic energy  EATOM  =      2018.74592190
  Solvation  Ecorr_sol  =         0.00000000
  ---------------------------------------------------
  free energy    TOTEN  =       -27.32090634 eV

  energy without entropy =      -27.32090634  energy(sigma->0) =      -27.32090634


--------------------------------------------------------------------------------------------------------




--------------------------------------- Iteration      1(   8)  ---------------------------------------


    POTLOK:  cpu time    0.9527: real time    0.9582
    SETDIJ:  cpu time    0.0211: real time    0.0212
    EDDIAG:  cpu time    0.2354: real time    0.2368
  RMM-DIIS:  cpu time    1.5037: real time    1.5118
    ORTHCH:  cpu time    0.0189: real time    0.0190
       DOS:  cpu time    0.0002: real time    0.0002
    CHARGE:  cpu time    0.1382: real time    0.1391
    MIXING:  cpu time    0.0396: real time    0.0398
    --------------------------------------------
      LOOP:  cpu time    2.9099: real time    2.9262

 eigenvalue-minimisations  :   106
 total energy-change (2. order) :-0.1204495E+01  (-0.9905086E-01)
 number of electron      31.0000005 magnetization       4.3859042
 augmentation part        1.6956682 magnetization       3.5830311

 DIPCOR: dipole corrections for dipol
 direction  3 min pos   269,
 dipolmoment           0.000000      0.000000     -0.130623 electrons x Angstroem
 Tr[quadrupol]      -650.339404

 energy correction for charged system         0.000000 eV
 dipol+quadrupol energy correction           -0.000887 eV
 added-field ion interaction          2.865546 eV  (added to PSCEN)


 Broyden mixing:
  rms(total) = 0.34854E+00    rms(broyden)= 0.34853E+00
  rms(prec ) = 0.35085E+00
  weight for this iteration     100.00

 eigenvalues of (default mixing * dielectric matrix)
  average eigenvalue GAMMA=   1.3185
  2.2583  1.0413  0.6560

 Free energy of the ion-electron system (eV)
  ---------------------------------------------------
  alpha Z        PSCENC =         5.00690268
  Ewald energy   TEWEN  =      2893.76466982
  -Hartree energ DENC   =     -4601.61428073
  -exchange      EXHF   =         0.00000000
  -V(xc)+E(xc)   XCENC  =       133.40899243
  PAW double counting   =      4884.62001764    -4889.13394868
  entropy T*S    EENTRO =        -0.00000000
  eigenvalues    EBANDS =      -473.32367680
  atomic energy  EATOM  =      2018.74592190
  Solvation  Ecorr_sol  =         0.00000000
  ---------------------------------------------------
  free energy    TOTEN  =       -28.52540176 eV

  energy without entropy =      -28.52540176  energy(sigma->0) =      -28.52540176


--------------------------------------------------------------------------------------------------------




--------------------------------------- Iteration      1(   9)  ---------------------------------------


    POTLOK:  cpu time    0.9410: real time    0.9483
    SETDIJ:  cpu time    0.0174: real time    0.0174
    EDDIAG:  cpu time    0.2402: real time    0.2417
  RMM-DIIS:  cpu time    1.1307: real time    1.1374
    ORTHCH:  cpu time    0.0194: real time    0.0195
       DOS:  cpu time    0.0002: real time    0.0002
    CHARGE:  cpu time    0.1254: real time    0.1262
    MIXING:  cpu time    0.0195: real time    0.0196
    --------------------------------------------
      LOOP:  cpu time    2.4939: real time    2.5104

 eigenvalue-minimisations  :   109
 total energy-change (2. order) :-0.7793546E+00  (-0.5272663E-01)
 number of electron      31.0000005 magnetization       4.1863117
 augmentation part        1.7588818 magnetization       3.4076675

 DIPCOR: dipole corrections for dipol
 direction  3 min pos   269,
 dipolmoment           0.000000      0.000000     -0.163314 electrons x Angstroem
 Tr[quadrupol]      -650.992625

 energy correction for charged system         0.000000 eV
 dipol+quadrupol energy correction           -0.001387 eV
 added-field ion interaction          3.582695 eV  (added to PSCEN)


 Broyden mixing:
  rms(total) = 0.14827E+00    rms(broyden)= 0.14823E+00
  rms(prec ) = 0.14957E+00
  weight for this iteration     100.00

 eigenvalues of (default mixing * dielectric matrix)
  average eigenvalue GAMMA=   1.2235
  2.3275  1.0930  0.8302  0.6432

 Free energy of the ion-electron system (eV)
  ---------------------------------------------------
  alpha Z        PSCENC =         5.72355201
  Ewald energy   TEWEN  =      2893.76466982
  -Hartree energ DENC   =     -4598.38005778
  -exchange      EXHF   =         0.00000000
  -V(xc)+E(xc)   XCENC  =       132.36386139
  PAW double counting   =      5134.24965285    -5138.59916806
  entropy T*S    EENTRO =         0.00000000
  eigenvalues    EBANDS =      -477.17318844
  atomic energy  EATOM  =      2018.74592190
  Solvation  Ecorr_sol  =         0.00000000
  ---------------------------------------------------
  free energy    TOTEN  =       -29.30475632 eV

  energy without entropy =      -29.30475632  energy(sigma->0) =      -29.30475632


--------------------------------------------------------------------------------------------------------




--------------------------------------- Iteration      1(  10)  ---------------------------------------


    POTLOK:  cpu time    1.3360: real time    1.3432
    SETDIJ:  cpu time    0.0177: real time    0.0177
    EDDIAG:  cpu time    0.2359: real time    0.2372
  RMM-DIIS:  cpu time    1.0824: real time    1.0894
    ORTHCH:  cpu time    0.0181: real time    0.0182
       DOS:  cpu time    0.0002: real time    0.0002
    CHARGE:  cpu time    0.1326: real time    0.1338
    MIXING:  cpu time    0.0402: real time    0.0404
    --------------------------------------------
      LOOP:  cpu time    2.8632: real time    2.8801

 eigenvalue-minimisations  :   111
 total energy-change (2. order) :-0.3997016E+00  (-0.4296861E-02)
 number of electron      31.0000005 magnetization       3.8162752
 augmentation part        1.7504264 magnetization       3.0402094

 DIPCOR: dipole corrections for dipol
 direction  3 min pos   269,
 dipolmoment           0.000000      0.000000     -0.181208 electrons x Angstroem
 Tr[quadrupol]      -651.289483

 energy correction for charged system         0.000000 eV
 dipol+quadrupol energy correction           -0.001708 eV
 added-field ion interaction          3.975238 eV  (added to PSCEN)


 Broyden mixing:
  rms(total) = 0.12232E+00    rms(broyden)= 0.12232E+00
  rms(prec ) = 0.12307E+00
  weight for this iteration     100.00

 eigenvalues of (default mixing * dielectric matrix)
  average eigenvalue GAMMA=   1.1616
  2.3175  1.0389  1.0389  0.6151  0.7974

 Free energy of the ion-electron system (eV)
  ---------------------------------------------------
  alpha Z        PSCENC =         6.11577460
  Ewald energy   TEWEN  =      2893.76466982
  -Hartree energ DENC   =     -4599.52541901
  -exchange      EXHF   =         0.00000000
  -V(xc)+E(xc)   XCENC  =       132.08747169
  PAW double counting   =      5154.16598203    -5158.53486981
  entropy T*S    EENTRO =        -0.00000000
  eigenvalues    EBANDS =      -476.52398916
  atomic energy  EATOM  =      2018.74592190
  Solvation  Ecorr_sol  =         0.00000000
  ---------------------------------------------------
  free energy    TOTEN  =       -29.70445795 eV

  energy without entropy =      -29.70445795  energy(sigma->0) =      -29.70445795


--------------------------------------------------------------------------------------------------------




--------------------------------------- Iteration      1(  11)  ---------------------------------------


    POTLOK:  cpu time    0.9240: real time    0.9300
    SETDIJ:  cpu time    0.0221: real time    0.0222
    EDDIAG:  cpu time    0.2429: real time    0.2445
  RMM-DIIS:  cpu time    1.0540: real time    1.0603
    ORTHCH:  cpu time    0.0196: real time    0.0197
       DOS:  cpu time    0.0002: real time    0.0002
    CHARGE:  cpu time    0.1333: real time    0.1342
    MIXING:  cpu time    0.0288: real time    0.0289
    --------------------------------------------
      LOOP:  cpu time    2.4249: real time    2.4399

 eigenvalue-minimisations  :   104
 total energy-change (2. order) :-0.5705728E+00  (-0.7429535E-02)
 number of electron      31.0000005 magnetization       3.2344490
 augmentation part        1.7352017 magnetization       2.4604826

 DIPCOR: dipole corrections for dipol
 direction  3 min pos   269,
 dipolmoment           0.000000      0.000000     -0.214995 electrons x Angstroem
 Tr[quadrupol]      -651.805362

 energy correction for charged system         0.000000 eV
 dipol+quadrupol energy correction           -0.002404 eV
 added-field ion interaction          4.716457 eV  (added to PSCEN)


 Broyden mixing:
  rms(total) = 0.10535E+00    rms(broyden)= 0.10535E+00
  rms(prec ) = 0.10603E+00
  weight for this iteration     100.00

 eigenvalues of (default mixing * dielectric matrix)
  average eigenvalue GAMMA=   1.1992
  2.2897  1.6566  0.9138  0.9138  0.6210  0.8003

 Free energy of the ion-electron system (eV)
  ---------------------------------------------------
  alpha Z        PSCENC =         6.85629676
  Ewald energy   TEWEN  =      2893.76466982
  -Hartree energ DENC   =     -4600.44393351
  -exchange      EXHF   =         0.00000000
  -V(xc)+E(xc)   XCENC  =       131.66362770
  PAW double counting   =      5153.61382064    -5158.00060788
  entropy T*S    EENTRO =        -0.00000000
  eigenvalues    EBANDS =      -476.47482614
  atomic energy  EATOM  =      2018.74592190
  Solvation  Ecorr_sol  =         0.00000000
  ---------------------------------------------------
  free energy    TOTEN  =       -30.27503072 eV

  energy without entropy =      -30.27503072  energy(sigma->0) =      -30.27503072


--------------------------------------------------------------------------------------------------------




--------------------------------------- Iteration      1(  12)  ---------------------------------------


    POTLOK:  cpu time    0.9441: real time    0.9499
    SETDIJ:  cpu time    0.0207: real time    0.0207
    EDDIAG:  cpu time    0.2059: real time    0.2072
  RMM-DIIS:  cpu time    1.1088: real time    1.1153
    ORTHCH:  cpu time    0.0184: real time    0.0185
       DOS:  cpu time    0.0002: real time    0.0002
    CHARGE:  cpu time    0.1342: real time    0.1352
    MIXING:  cpu time    0.0413: real time    0.0415
    --------------------------------------------
      LOOP:  cpu time    2.4736: real time    2.4884

 eigenvalue-minimisations  :   107
 total energy-change (2. order) :-0.6682315E+00  (-0.1095121E-01)
 number of electron      31.0000005 magnetization       2.5679573
 augmentation part        1.7309701 magnetization       1.7989606

 DIPCOR: dipole corrections for dipol
 direction  3 min pos   269,
 dipolmoment           0.000000      0.000000     -0.269526 electrons x Angstroem
 Tr[quadrupol]      -652.595754

 energy correction for charged system         0.000000 eV
 dipol+quadrupol energy correction           -0.003778 eV
 added-field ion interaction          5.912715 eV  (added to PSCEN)


 Broyden mixing:
  rms(total) = 0.81170E-01    rms(broyden)= 0.81168E-01
  rms(prec ) = 0.81621E-01
  weight for this iteration     100.00

 eigenvalues of (default mixing * dielectric matrix)
  average eigenvalue GAMMA=   1.3571
  3.2541  2.3654  0.9523  0.9523  0.6496  0.6630  0.6630

 Free energy of the ion-electron system (eV)
  ---------------------------------------------------
  alpha Z        PSCENC =         8.05118088
  Ewald energy   TEWEN  =      2893.76466982
  -Hartree energ DENC   =     -4600.24284555
  -exchange      EXHF   =         0.00000000
  -V(xc)+E(xc)   XCENC  =       131.07213209
  PAW double counting   =      5141.65007751    -5146.02645861
  entropy T*S    EENTRO =        -0.00000000
  eigenvalues    EBANDS =      -477.95794023
  atomic energy  EATOM  =      2018.74592190
  Solvation  Ecorr_sol  =         0.00000000
  ---------------------------------------------------
  free energy    TOTEN  =       -30.94326219 eV

  energy without entropy =      -30.94326219  energy(sigma->0) =      -30.94326219


--------------------------------------------------------------------------------------------------------




--------------------------------------- Iteration      1(  13)  ---------------------------------------


    POTLOK:  cpu time    0.9252: real time    0.9319
    SETDIJ:  cpu time    0.0216: real time    0.0217
    EDDIAG:  cpu time    0.2391: real time    0.2405
  RMM-DIIS:  cpu time    1.0132: real time    1.0193
    ORTHCH:  cpu time    0.0195: real time    0.0196
       DOS:  cpu time    0.0002: real time    0.0002
    CHARGE:  cpu time    0.1395: real time    0.1404
    MIXING:  cpu time    0.0288: real time    0.0289
    --------------------------------------------
      LOOP:  cpu time    2.3871: real time    2.4024

 eigenvalue-minimisations  :   103
 total energy-change (2. order) :-0.4548174E+00  (-0.1370020E-01)
 number of electron      31.0000005 magnetization       2.0549650
 augmentation part        1.7321933 magnetization       1.2920334

 DIPCOR: dipole corrections for dipol
 direction  3 min pos   269,
 dipolmoment           0.000000      0.000000     -0.333699 electrons x Angstroem
 Tr[quadrupol]      -653.463238

 energy correction for charged system         0.000000 eV
 dipol+quadrupol energy correction           -0.005791 eV
 added-field ion interaction          7.320511 eV  (added to PSCEN)


 Broyden mixing:
  rms(total) = 0.55002E-01    rms(broyden)= 0.54997E-01
  rms(prec ) = 0.55468E-01
  weight for this iteration     100.00

 eigenvalues of (default mixing * dielectric matrix)
  average eigenvalue GAMMA=   1.5838
  5.2129  2.3232  1.0813  1.0813  0.8158  0.8158  0.6151  0.7251

 Free energy of the ion-electron system (eV)
  ---------------------------------------------------
  alpha Z        PSCENC =         9.45696377
  Ewald energy   TEWEN  =      2893.76466982
  -Hartree energ DENC   =     -4599.70880465
  -exchange      EXHF   =         0.00000000
  -V(xc)+E(xc)   XCENC  =       130.65321106
  PAW double counting   =      5126.65997851    -5131.01893645
  entropy T*S    EENTRO =        -0.00000000
  eigenvalues    EBANDS =      -479.95108356
  atomic energy  EATOM  =      2018.74592190
  Solvation  Ecorr_sol  =         0.00000000
  ---------------------------------------------------
  free energy    TOTEN  =       -31.39807961 eV

  energy without entropy =      -31.39807961  energy(sigma->0) =      -31.39807961


--------------------------------------------------------------------------------------------------------




--------------------------------------- Iteration      1(  14)  ---------------------------------------


    POTLOK:  cpu time    1.2561: real time    1.2637
    SETDIJ:  cpu time    0.0130: real time    0.0131
    EDDIAG:  cpu time    0.2395: real time    0.2409
  RMM-DIIS:  cpu time    1.0286: real time    1.0350
    ORTHCH:  cpu time    0.0169: real time    0.0170
       DOS:  cpu time    0.0002: real time    0.0002
    CHARGE:  cpu time    0.1435: real time    0.1445
    MIXING:  cpu time    0.0277: real time    0.0279
    --------------------------------------------
      LOOP:  cpu time    2.7256: real time    2.7423

 eigenvalue-minimisations  :   104
 total energy-change (2. order) :-0.3962975E+00  (-0.1158302E-01)
 number of electron      31.0000005 magnetization       1.6970473
 augmentation part        1.7375768 magnetization       0.9406440

 DIPCOR: dipole corrections for dipol
 direction  3 min pos   269,
 dipolmoment           0.000000      0.000000     -0.386453 electrons x Angstroem
 Tr[quadrupol]      -654.035255

 energy correction for charged system         0.000000 eV
 dipol+quadrupol energy correction           -0.007766 eV
 added-field ion interaction          8.477792 eV  (added to PSCEN)


 Broyden mixing:
  rms(total) = 0.44204E-01    rms(broyden)= 0.44190E-01
  rms(prec ) = 0.44951E-01
  weight for this iteration     100.00

 eigenvalues of (default mixing * dielectric matrix)
  average eigenvalue GAMMA=   1.7658
  7.4375  2.2994  1.4116  1.1757  0.8724  0.7083  0.6071  0.6902  0.6902

 Free energy of the ion-electron system (eV)
  ---------------------------------------------------
  alpha Z        PSCENC =        10.61226951
  Ewald energy   TEWEN  =      2893.76466982
  -Hartree energ DENC   =     -4598.96155220
  -exchange      EXHF   =         0.00000000
  -V(xc)+E(xc)   XCENC  =       130.25305767
  PAW double counting   =      5117.52670007    -5121.87363210
  entropy T*S    EENTRO =         0.00000000
  eigenvalues    EBANDS =      -481.86181176
  atomic energy  EATOM  =      2018.74592190
  Solvation  Ecorr_sol  =         0.00000000
  ---------------------------------------------------
  free energy    TOTEN  =       -31.79437710 eV

  energy without entropy =      -31.79437710  energy(sigma->0) =      -31.79437710


--------------------------------------------------------------------------------------------------------




--------------------------------------- Iteration      1(  15)  ---------------------------------------


    POTLOK:  cpu time    0.9253: real time    0.9311
    SETDIJ:  cpu time    0.0190: real time    0.0191
    EDDIAG:  cpu time    0.2447: real time    0.2462
  RMM-DIIS:  cpu time    1.0120: real time    1.0182
    ORTHCH:  cpu time    0.0161: real time    0.0162
       DOS:  cpu time    0.0002: real time    0.0002
    CHARGE:  cpu time    0.1419: real time    0.1428
    MIXING:  cpu time    0.0401: real time    0.0403
    --------------------------------------------
      LOOP:  cpu time    2.3993: real time    2.4140

 eigenvalue-minimisations  :   105
 total energy-change (2. order) :-0.2718723E+00  (-0.5714574E-02)
 number of electron      31.0000005 magnetization       1.5227406
 augmentation part        1.7402499 magnetization       0.7712002

 DIPCOR: dipole corrections for dipol
 direction  3 min pos   269,
 dipolmoment           0.000000      0.000000     -0.423674 electrons x Angstroem
 Tr[quadrupol]      -654.376039

 energy correction for charged system         0.000000 eV
 dipol+quadrupol energy correction           -0.009335 eV
 added-field ion interaction          9.294331 eV  (added to PSCEN)


 Broyden mixing:
  rms(total) = 0.27842E-01    rms(broyden)= 0.27837E-01
  rms(prec ) = 0.28488E-01
  weight for this iteration     100.00

 eigenvalues of (default mixing * dielectric matrix)
  average eigenvalue GAMMA=   1.8447
  8.7203  2.2656  1.6976  1.0387  1.0387  0.9941  0.7022  0.6159  0.6867  0.6867

 Free energy of the ion-electron system (eV)
  ---------------------------------------------------
  alpha Z        PSCENC =        11.42724029
  Ewald energy   TEWEN  =      2893.76466982
  -Hartree energ DENC   =     -4598.30407113
  -exchange      EXHF   =         0.00000000
  -V(xc)+E(xc)   XCENC  =       129.96642442
  PAW double counting   =      5112.83078545    -5117.17322293
  entropy T*S    EENTRO =        -0.00000000
  eigenvalues    EBANDS =      -483.32399718
  atomic energy  EATOM  =      2018.74592190
  Solvation  Ecorr_sol  =         0.00000000
  ---------------------------------------------------
  free energy    TOTEN  =       -32.06624938 eV

  energy without entropy =      -32.06624938  energy(sigma->0) =      -32.06624938


--------------------------------------------------------------------------------------------------------




--------------------------------------- Iteration      1(  16)  ---------------------------------------


    POTLOK:  cpu time    0.9483: real time    0.9546
    SETDIJ:  cpu time    0.0209: real time    0.0209
    EDDIAG:  cpu time    0.2365: real time    0.2379
  RMM-DIIS:  cpu time    1.1233: real time    1.1305
    ORTHCH:  cpu time    0.0192: real time    0.0194
       DOS:  cpu time    0.0001: real time    0.0001
    CHARGE:  cpu time    0.1436: real time    0.1445
    MIXING:  cpu time    0.0293: real time    0.0295
    --------------------------------------------
      LOOP:  cpu time    2.5212: real time    2.5374

 eigenvalue-minimisations  :   115
 total energy-change (2. order) :-0.8637693E-01  (-0.1553207E-02)
 number of electron      31.0000005 magnetization       1.3830884
 augmentation part        1.7340684 magnetization       0.6337085

 DIPCOR: dipole corrections for dipol
 direction  3 min pos   269,
 dipolmoment           0.000000      0.000000     -0.440990 electrons x Angstroem
 Tr[quadrupol]      -654.442003

 energy correction for charged system         0.000000 eV
 dipol+quadrupol energy correction           -0.010113 eV
 added-field ion interaction          9.674209 eV  (added to PSCEN)


 Broyden mixing:
  rms(total) = 0.16741E-01    rms(broyden)= 0.16738E-01
  rms(prec ) = 0.17191E-01
  weight for this iteration     100.00

 eigenvalues of (default mixing * dielectric matrix)
  average eigenvalue GAMMA=   1.9711
 10.1589  2.4098  2.4098  1.1473  1.1473  0.9830  0.6891  0.6891  0.6180  0.7381
  0.6915

 Free energy of the ion-electron system (eV)
  ---------------------------------------------------
  alpha Z        PSCENC =        11.80633930
  Ewald energy   TEWEN  =      2893.76466982
  -Hartree energ DENC   =     -4598.10934600
  -exchange      EXHF   =         0.00000000
  -V(xc)+E(xc)   XCENC  =       129.90555136
  PAW double counting   =      5122.47201152    -5126.82666150
  entropy T*S    EENTRO =        -0.00000000
  eigenvalues    EBANDS =      -483.91111270
  atomic energy  EATOM  =      2018.74592190
  Solvation  Ecorr_sol  =         0.00000000
  ---------------------------------------------------
  free energy    TOTEN  =       -32.15262631 eV

  energy without entropy =      -32.15262631  energy(sigma->0) =      -32.15262631


--------------------------------------------------------------------------------------------------------




--------------------------------------- Iteration      1(  17)  ---------------------------------------


    POTLOK:  cpu time    0.9369: real time    0.9421
    SETDIJ:  cpu time    0.0206: real time    0.0207
    EDDIAG:  cpu time    0.2387: real time    0.2401
  RMM-DIIS:  cpu time    1.0889: real time    1.0956
    ORTHCH:  cpu time    0.0189: real time    0.0190
       DOS:  cpu time    0.0001: real time    0.0001
    CHARGE:  cpu time    0.1379: real time    0.1387
    MIXING:  cpu time    0.0374: real time    0.0376
    --------------------------------------------
      LOOP:  cpu time    2.4793: real time    2.4939

 eigenvalue-minimisations  :   114
 total energy-change (2. order) :-0.4629894E-01  (-0.4270160E-03)
 number of electron      31.0000005 magnetization       1.2950772
 augmentation part        1.7319759 magnetization       0.5468377

 DIPCOR: dipole corrections for dipol
 direction  3 min pos   269,
 dipolmoment           0.000000      0.000000     -0.453120 electrons x Angstroem
 Tr[quadrupol]      -654.429864

 energy correction for charged system         0.000000 eV
 dipol+quadrupol energy correction           -0.010677 eV
 added-field ion interaction          9.940308 eV  (added to PSCEN)


 Broyden mixing:
  rms(total) = 0.12798E-01    rms(broyden)= 0.12795E-01
  rms(prec ) = 0.13122E-01
  weight for this iteration     100.00

 eigenvalues of (default mixing * dielectric matrix)
  average eigenvalue GAMMA=   1.9817
 10.7549  2.8655  2.3973  1.1031  1.1031  1.1480  1.0578  0.6835  0.6835  0.7093
  0.6160  0.6587

 Free energy of the ion-electron system (eV)
  ---------------------------------------------------
  alpha Z        PSCENC =        12.07187472
  Ewald energy   TEWEN  =      2893.76466982
  -Hartree energ DENC   =     -4597.42949455
  -exchange      EXHF   =         0.00000000
  -V(xc)+E(xc)   XCENC  =       129.84801272
  PAW double counting   =      5128.27504685    -5132.62963721
  entropy T*S    EENTRO =        -0.00000000
  eigenvalues    EBANDS =      -484.84531949
  atomic energy  EATOM  =      2018.74592190
  Solvation  Ecorr_sol  =         0.00000000
  ---------------------------------------------------
  free energy    TOTEN  =       -32.19892525 eV

  energy without entropy =      -32.19892525  energy(sigma->0) =      -32.19892525


--------------------------------------------------------------------------------------------------------




--------------------------------------- Iteration      1(  18)  ---------------------------------------


    POTLOK:  cpu time    1.2796: real time    1.2879
    SETDIJ:  cpu time    0.0125: real time    0.0125
    EDDIAG:  cpu time    0.2330: real time    0.2343
  RMM-DIIS:  cpu time    1.0581: real time    1.0647
    ORTHCH:  cpu time    0.0200: real time    0.0201
       DOS:  cpu time    0.0002: real time    0.0002
    CHARGE:  cpu time    0.1400: real time    0.1409
    MIXING:  cpu time    0.0357: real time    0.0359
    --------------------------------------------
      LOOP:  cpu time    2.7790: real time    2.7965

 eigenvalue-minimisations  :   112
 total energy-change (2. order) :-0.3116777E-01  (-0.1189419E-03)
 number of electron      31.0000005 magnetization       1.2207601
 augmentation part        1.7334579 magnetization       0.4727354

 DIPCOR: dipole corrections for dipol
 direction  3 min pos   269,
 dipolmoment           0.000000      0.000000     -0.457591 electrons x Angstroem
 Tr[quadrupol]      -654.372411

 energy correction for charged system         0.000000 eV
 dipol+quadrupol energy correction           -0.010889 eV
 added-field ion interaction         10.038400 eV  (added to PSCEN)


 Broyden mixing:
  rms(total) = 0.91842E-02    rms(broyden)= 0.91837E-02
  rms(prec ) = 0.93707E-02
  weight for this iteration     100.00

 eigenvalues of (default mixing * dielectric matrix)
  average eigenvalue GAMMA=   1.9932
 11.1534  3.4338  2.3179  1.6079  1.0595  1.0595  1.0780  0.6855  0.6855  0.8735
  0.7039  0.6126  0.6403

 Free energy of the ion-electron system (eV)
  ---------------------------------------------------
  alpha Z        PSCENC =        12.16975478
  Ewald energy   TEWEN  =      2893.76466982
  -Hartree energ DENC   =     -4596.75988786
  -exchange      EXHF   =         0.00000000
  -V(xc)+E(xc)   XCENC  =       129.79288723
  PAW double counting   =      5126.24386578    -5130.59377368
  entropy T*S    EENTRO =        -0.00000000
  eigenvalues    EBANDS =      -485.59353097
  atomic energy  EATOM  =      2018.74592190
  Solvation  Ecorr_sol  =         0.00000000
  ---------------------------------------------------
  free energy    TOTEN  =       -32.23009302 eV

  energy without entropy =      -32.23009302  energy(sigma->0) =      -32.23009302


--------------------------------------------------------------------------------------------------------




--------------------------------------- Iteration      1(  19)  ---------------------------------------


    POTLOK:  cpu time    0.9361: real time    0.9425
    SETDIJ:  cpu time    0.0112: real time    0.0113
    EDDIAG:  cpu time    0.2323: real time    0.2336
  RMM-DIIS:  cpu time    1.0404: real time    1.0479
    ORTHCH:  cpu time    0.0176: real time    0.0176
       DOS:  cpu time    0.0001: real time    0.0001
    CHARGE:  cpu time    0.1432: real time    0.1441
    MIXING:  cpu time    0.0412: real time    0.0414
    --------------------------------------------
      LOOP:  cpu time    2.4221: real time    2.4387

 eigenvalue-minimisations  :   105
 total energy-change (2. order) :-0.2533829E-01  (-0.4946069E-04)
 number of electron      31.0000005 magnetization       1.1555815
 augmentation part        1.7334609 magnetization       0.4076677

 DIPCOR: dipole corrections for dipol
 direction  3 min pos   269,
 dipolmoment           0.000000      0.000000     -0.457523 electrons x Angstroem
 Tr[quadrupol]      -654.287179

 energy correction for charged system         0.000000 eV
 dipol+quadrupol energy correction           -0.010886 eV
 added-field ion interaction         10.036906 eV  (added to PSCEN)


 Broyden mixing:
  rms(total) = 0.72770E-02    rms(broyden)= 0.72759E-02
  rms(prec ) = 0.73753E-02
  weight for this iteration     100.00

 eigenvalues of (default mixing * dielectric matrix)
  average eigenvalue GAMMA=   2.0060
 11.3821  3.9966  2.2547  1.9246  1.2648  1.0816  1.0816  1.0400  0.6847  0.6847
  0.7657  0.6819  0.6357  0.6060

 Free energy of the ion-electron system (eV)
  ---------------------------------------------------
  alpha Z        PSCENC =        12.16826392
  Ewald energy   TEWEN  =      2893.76466982
  -Hartree energ DENC   =     -4596.38185053
  -exchange      EXHF   =         0.00000000
  -V(xc)+E(xc)   XCENC  =       129.76279632
  PAW double counting   =      5126.16577425    -5130.51517360
  entropy T*S    EENTRO =        -0.00000000
  eigenvalues    EBANDS =      -485.96583338
  atomic energy  EATOM  =      2018.74592190
  Solvation  Ecorr_sol  =         0.00000000
  ---------------------------------------------------
  free energy    TOTEN  =       -32.25543130 eV

  energy without entropy =      -32.25543130  energy(sigma->0) =      -32.25543130


--------------------------------------------------------------------------------------------------------




--------------------------------------- Iteration      1(  20)  ---------------------------------------


    POTLOK:  cpu time    0.8877: real time    0.8941
    SETDIJ:  cpu time    0.0141: real time    0.0142
    EDDIAG:  cpu time    0.2339: real time    0.2354
  RMM-DIIS:  cpu time    1.0634: real time    1.0700
    ORTHCH:  cpu time    0.0165: real time    0.0165
       DOS:  cpu time    0.0002: real time    0.0002
    CHARGE:  cpu time    0.1153: real time    0.1160
    MIXING:  cpu time    0.0451: real time    0.0453
    --------------------------------------------
      LOOP:  cpu time    2.3760: real time    2.3917

 eigenvalue-minimisations  :   105
 total energy-change (2. order) :-0.1357740E-01  (-0.2655572E-04)
 number of electron      31.0000005 magnetization       1.0922210
 augmentation part        1.7336267 magnetization       0.3443631

 DIPCOR: dipole corrections for dipol
 direction  3 min pos   269,
 dipolmoment           0.000000      0.000000     -0.453731 electrons x Angstroem
 Tr[quadrupol]      -654.197461

 energy correction for charged system         0.000000 eV
 dipol+quadrupol energy correction           -0.010706 eV
 added-field ion interaction          9.953715 eV  (added to PSCEN)


 Broyden mixing:
  rms(total) = 0.55774E-02    rms(broyden)= 0.55766E-02
  rms(prec ) = 0.56542E-02
  weight for this iteration     100.00

 eigenvalues of (default mixing * dielectric matrix)
  average eigenvalue GAMMA=   2.0445
 11.5606  4.8181  2.3254  2.3254  1.3797  1.1124  1.1124  0.9833  0.9833  0.6868
  0.6868  0.7811  0.6701  0.6326  0.6091

 Free energy of the ion-electron system (eV)
  ---------------------------------------------------
  alpha Z        PSCENC =        12.08525235
  Ewald energy   TEWEN  =      2893.76466982
  -Hartree energ DENC   =     -4596.14441809
  -exchange      EXHF   =         0.00000000
  -V(xc)+E(xc)   XCENC  =       129.74657561
  PAW double counting   =      5125.71546858    -5130.06489250
  entropy T*S    EENTRO =        -0.00000000
  eigenvalues    EBANDS =      -486.11758636
  atomic energy  EATOM  =      2018.74592190
  Solvation  Ecorr_sol  =         0.00000000
  ---------------------------------------------------
  free energy    TOTEN  =       -32.26900870 eV

  energy without entropy =      -32.26900870  energy(sigma->0) =      -32.26900870


--------------------------------------------------------------------------------------------------------




--------------------------------------- Iteration      1(  21)  ---------------------------------------


    POTLOK:  cpu time    0.9385: real time    0.9449
    SETDIJ:  cpu time    0.0201: real time    0.0202
    EDDIAG:  cpu time    0.2441: real time    0.2455
  RMM-DIIS:  cpu time    0.9638: real time    0.9701
    ORTHCH:  cpu time    0.0203: real time    0.0204
       DOS:  cpu time    0.0002: real time    0.0002
    CHARGE:  cpu time    0.1397: real time    0.1405
    MIXING:  cpu time    0.0343: real time    0.0345
    --------------------------------------------
      LOOP:  cpu time    2.3613: real time    2.3766

 eigenvalue-minimisations  :    97
 total energy-change (2. order) :-0.9790555E-02  (-0.1670476E-04)
 number of electron      31.0000005 magnetization       1.0565981
 augmentation part        1.7337413 magnetization       0.3087138

 DIPCOR: dipole corrections for dipol
 direction  3 min pos   269,
 dipolmoment           0.000000      0.000000     -0.446328 electrons x Angstroem
 Tr[quadrupol]      -654.102624

 energy correction for charged system         0.000000 eV
 dipol+quadrupol energy correction           -0.010359 eV
 added-field ion interaction          9.791304 eV  (added to PSCEN)


 Broyden mixing:
  rms(total) = 0.38095E-02    rms(broyden)= 0.38082E-02
  rms(prec ) = 0.38645E-02
  weight for this iteration     100.00

 eigenvalues of (default mixing * dielectric matrix)
  average eigenvalue GAMMA=   2.0633
 11.7302  5.6861  2.5020  2.5020  1.5378  1.0904  1.0904  1.1350  0.6872  0.6872
  0.8796  0.7842  0.7842  0.6760  0.6100  0.6306

 Free energy of the ion-electron system (eV)
  ---------------------------------------------------
  alpha Z        PSCENC =        11.92318812
  Ewald energy   TEWEN  =      2893.76466982
  -Hartree energ DENC   =     -4595.97896267
  -exchange      EXHF   =         0.00000000
  -V(xc)+E(xc)   XCENC  =       129.73618259
  PAW double counting   =      5124.76076403    -5129.11052247
  entropy T*S    EENTRO =        -0.00000000
  eigenvalues    EBANDS =      -486.12004058
  atomic energy  EATOM  =      2018.74592190
  Solvation  Ecorr_sol  =         0.00000000
  ---------------------------------------------------
  free energy    TOTEN  =       -32.27879926 eV

  energy without entropy =      -32.27879926  energy(sigma->0) =      -32.27879926


--------------------------------------------------------------------------------------------------------




--------------------------------------- Iteration      1(  22)  ---------------------------------------


    POTLOK:  cpu time    0.8884: real time    0.8942
    SETDIJ:  cpu time    0.0185: real time    0.0186
    EDDIAG:  cpu time    0.2274: real time    0.2289
  RMM-DIIS:  cpu time    0.9487: real time    0.9545
    ORTHCH:  cpu time    0.0176: real time    0.0177
       DOS:  cpu time    0.0002: real time    0.0002
    CHARGE:  cpu time    0.1340: real time    0.1349
    MIXING:  cpu time    0.0523: real time    0.0525
    --------------------------------------------
      LOOP:  cpu time    2.2870: real time    2.3013

 eigenvalue-minimisations  :    95
 total energy-change (2. order) :-0.4925112E-02  (-0.5909652E-05)
 number of electron      31.0000005 magnetization       1.0308946
 augmentation part        1.7340603 magnetization       0.2830393

 DIPCOR: dipole corrections for dipol
 direction  3 min pos   269,
 dipolmoment           0.000000      0.000000     -0.440728 electrons x Angstroem
 Tr[quadrupol]      -654.050940

 energy correction for charged system         0.000000 eV
 dipol+quadrupol energy correction           -0.010101 eV
 added-field ion interaction          9.668456 eV  (added to PSCEN)


 Broyden mixing:
  rms(total) = 0.29787E-02    rms(broyden)= 0.29781E-02
  rms(prec ) = 0.30545E-02
  weight for this iteration     100.00

 eigenvalues of (default mixing * dielectric matrix)
  average eigenvalue GAMMA=   2.1420
 12.0932  7.2157  3.0569  2.3322  1.4327  1.4327  1.1359  1.1359  0.6884  0.6884
  0.9287  0.9287  0.7696  0.7059  0.6013  0.6338  0.6338

 Free energy of the ion-electron system (eV)
  ---------------------------------------------------
  alpha Z        PSCENC =        11.80059851
  Ewald energy   TEWEN  =      2893.76466982
  -Hartree energ DENC   =     -4595.89279153
  -exchange      EXHF   =         0.00000000
  -V(xc)+E(xc)   XCENC  =       129.72974443
  PAW double counting   =      5124.69990185    -5129.04925563
  entropy T*S    EENTRO =        -0.00000000
  eigenvalues    EBANDS =      -486.08251372
  atomic energy  EATOM  =      2018.74592190
  Solvation  Ecorr_sol  =         0.00000000
  ---------------------------------------------------
  free energy    TOTEN  =       -32.28372437 eV

  energy without entropy =      -32.28372437  energy(sigma->0) =      -32.28372437


--------------------------------------------------------------------------------------------------------




--------------------------------------- Iteration      1(  23)  ---------------------------------------


    POTLOK:  cpu time    0.9235: real time    0.9299
    SETDIJ:  cpu time    0.0185: real time    0.0186
    EDDIAG:  cpu time    0.2429: real time    0.2443
  RMM-DIIS:  cpu time    0.8971: real time    0.9023
    ORTHCH:  cpu time    0.0180: real time    0.0181
       DOS:  cpu time    0.0002: real time    0.0002
    CHARGE:  cpu time    0.1317: real time    0.1325
    MIXING:  cpu time    0.0502: real time    0.0504
    --------------------------------------------
      LOOP:  cpu time    2.2820: real time    2.2964

 eigenvalue-minimisations  :    85
 total energy-change (2. order) :-0.4154189E-02  (-0.3690487E-05)
 number of electron      31.0000005 magnetization       1.0108130
 augmentation part        1.7339483 magnetization       0.2629728

 DIPCOR: dipole corrections for dipol
 direction  3 min pos   269,
 dipolmoment           0.000000      0.000000     -0.435208 electrons x Angstroem
 Tr[quadrupol]      -654.016239

 energy correction for charged system         0.000000 eV
 dipol+quadrupol energy correction           -0.009850 eV
 added-field ion interaction          9.547362 eV  (added to PSCEN)


 Broyden mixing:
  rms(total) = 0.17630E-02    rms(broyden)= 0.17626E-02
  rms(prec ) = 0.18474E-02
  weight for this iteration     100.00

 eigenvalues of (default mixing * dielectric matrix)
  average eigenvalue GAMMA=   2.2267
 12.6128  8.5253  3.3984  2.2866  1.8008  1.2899  1.2899  1.1769  0.9851  0.9851
  0.9766  0.6880  0.6880  0.7480  0.7480  0.6451  0.6082  0.6277

 Free energy of the ion-electron system (eV)
  ---------------------------------------------------
  alpha Z        PSCENC =        11.67975630
  Ewald energy   TEWEN  =      2893.76466982
[...]
 added-field ion interaction          9.322501 eV  (added to PSCEN)


 Broyden mixing:
  rms(total) = 0.80131E-04    rms(broyden)= 0.80097E-04
  rms(prec ) = 0.11288E-03
  weight for this iteration     100.00

 eigenvalues of (default mixing * dielectric matrix)
  average eigenvalue GAMMA=   2.1882
 13.9589  9.9524  4.3558  3.4781  2.3344  2.3344  1.3479  1.3479  1.3043  1.3043
  1.0777  1.0777  0.6880  0.6880  0.7196  0.7196  0.9170  0.9170  0.7804  0.7013
  0.6655  0.6221  0.6221  0.6016

 Free energy of the ion-electron system (eV)
  ---------------------------------------------------
  alpha Z        PSCENC =        11.45535317
  Ewald energy   TEWEN  =      2893.76466982
  -Hartree energ DENC   =     -4595.99668179
  -exchange      EXHF   =         0.00000000
  -V(xc)+E(xc)   XCENC  =       129.72381707
  PAW double counting   =      5125.37018145    -5129.72038233
  entropy T*S    EENTRO =         0.00000000
  eigenvalues    EBANDS =      -485.63718659
  atomic energy  EATOM  =      2018.74592190
  Solvation  Ecorr_sol  =         0.00000000
  ---------------------------------------------------
  free energy    TOTEN  =       -32.29430732 eV

  energy without entropy =      -32.29430732  energy(sigma->0) =      -32.29430732


--------------------------------------------------------------------------------------------------------




--------------------------------------- Iteration      1(  30)  ---------------------------------------


    POTLOK:  cpu time    0.9300: real time    0.9352
    SETDIJ:  cpu time    0.0196: real time    0.0197
    EDDIAG:  cpu time    0.2393: real time    0.2406
  RMM-DIIS:  cpu time    0.6294: real time    0.6332
    ORTHCH:  cpu time    0.0168: real time    0.0168
       DOS:  cpu time    0.0001: real time    0.0001
    CHARGE:  cpu time    0.1290: real time    0.1298
    MIXING:  cpu time    0.0574: real time    0.0577
    --------------------------------------------
      LOOP:  cpu time    2.0215: real time    2.0332

 eigenvalue-minimisations  :    60
 total energy-change (2. order) :-0.5435917E-04  (-0.2098700E-06)
 number of electron      31.0000005 magnetization       1.0000884
 augmentation part        1.7337316 magnetization       0.2523446

 DIPCOR: dipole corrections for dipol
 direction  3 min pos   269,
 dipolmoment           0.000000      0.000000     -0.425358 electrons x Angstroem
 Tr[quadrupol]      -654.008496

 energy correction for charged system         0.000000 eV
 dipol+quadrupol energy correction           -0.009409 eV
 added-field ion interaction          9.331285 eV  (added to PSCEN)


 Broyden mixing:
  rms(total) = 0.49031E-04    rms(broyden)= 0.48990E-04
  rms(prec ) = 0.67980E-04
  weight for this iteration     100.00

 eigenvalues of (default mixing * dielectric matrix)
  average eigenvalue GAMMA=   2.2038
 13.9725  9.9638  5.0959  3.8827  2.4412  2.2755  1.6976  1.3504  1.3504  1.3414
  1.0865  1.0865  0.9907  0.9907  0.6880  0.6880  0.7209  0.7209  0.8112  0.7619
  0.6909  0.6427  0.6224  0.6224  0.5990

 Free energy of the ion-electron system (eV)
  ---------------------------------------------------
  alpha Z        PSCENC =        11.46411973
  Ewald energy   TEWEN  =      2893.76466982
  -Hartree energ DENC   =     -4596.00636517
  -exchange      EXHF   =         0.00000000
  -V(xc)+E(xc)   XCENC  =       129.72385130
  PAW double counting   =      5125.40996378    -5129.76013400
  entropy T*S    EENTRO =        -0.00000000
  eigenvalues    EBANDS =      -485.63638903
  atomic energy  EATOM  =      2018.74592190
  Solvation  Ecorr_sol  =         0.00000000
  ---------------------------------------------------
  free energy    TOTEN  =       -32.29436167 eV

  energy without entropy =      -32.29436167  energy(sigma->0) =      -32.29436167


--------------------------------------------------------------------------------------------------------




--------------------------------------- Iteration      1(  31)  ---------------------------------------


    POTLOK:  cpu time    0.9010: real time    0.9068
    SETDIJ:  cpu time    0.0207: real time    0.0208
    EDDIAG:  cpu time    0.2363: real time    0.2377
  RMM-DIIS:  cpu time    0.6705: real time    0.6745
    ORTHCH:  cpu time    0.0194: real time    0.0195
       DOS:  cpu time    0.0002: real time    0.0002
    CHARGE:  cpu time    0.1391: real time    0.1400
    MIXING:  cpu time    0.0492: real time    0.0494
    --------------------------------------------
      LOOP:  cpu time    2.0365: real time    2.0489

 eigenvalue-minimisations  :    56
 total energy-change (2. order) :-0.1280819E-04  (-0.8680955E-07)
 number of electron      31.0000005 magnetization       1.0000469
 augmentation part        1.7337280 magnetization       0.2523017

 DIPCOR: dipole corrections for dipol
 direction  3 min pos   269,
 dipolmoment           0.000000      0.000000     -0.425796 electrons x Angstroem
 Tr[quadrupol]      -654.011315

 energy correction for charged system         0.000000 eV
 dipol+quadrupol energy correction           -0.009428 eV
 added-field ion interaction          9.340882 eV  (added to PSCEN)


 Broyden mixing:
  rms(total) = 0.28720E-04    rms(broyden)= 0.28705E-04
  rms(prec ) = 0.42682E-04
  weight for this iteration     100.00

 eigenvalues of (default mixing * dielectric matrix)
  average eigenvalue GAMMA=   2.1929
 13.9789  9.9715  5.5929  3.9602  2.5457  2.2413  1.7831  1.5577  1.3415  1.3415
  1.0759  1.0759  1.1551  0.9399  0.9399  0.6880  0.6880  0.7219  0.7219  0.7946
  0.7389  0.6842  0.5992  0.6308  0.6231  0.6231

 Free energy of the ion-electron system (eV)
  ---------------------------------------------------
  alpha Z        PSCENC =        11.47369757
  Ewald energy   TEWEN  =      2893.76466982
  -Hartree energ DENC   =     -4596.01065205
  -exchange      EXHF   =         0.00000000
  -V(xc)+E(xc)   XCENC  =       129.72387601
  PAW double counting   =      5125.43804183    -5129.78819941
  entropy T*S    EENTRO =        -0.00000000
  eigenvalues    EBANDS =      -485.64173014
  atomic energy  EATOM  =      2018.74592190
  Solvation  Ecorr_sol  =         0.00000000
  ---------------------------------------------------
  free energy    TOTEN  =       -32.29437448 eV

  energy without entropy =      -32.29437448  energy(sigma->0) =      -32.29437448


--------------------------------------------------------------------------------------------------------




--------------------------------------- Iteration      1(  32)  ---------------------------------------


    POTLOK:  cpu time    0.9542: real time    0.9609
    SETDIJ:  cpu time    0.0194: real time    0.0195
    EDDIAG:  cpu time    0.2334: real time    0.2348
  RMM-DIIS:  cpu time    0.6604: real time    0.6642
    ORTHCH:  cpu time    0.0171: real time    0.0172
       DOS:  cpu time    0.0001: real time    0.0001
    --------------------------------------------
      LOOP:  cpu time    1.8846: real time    1.8966

 eigenvalue-minimisations  :    51
 total energy-change (2. order) :-0.7337287E-05  (-0.1656439E-07)
 number of electron      31.0000005 magnetization       1.0000469
 augmentation part        1.7337280 magnetization       0.2523017

 DIPCOR: dipole corrections for dipol
 direction  3 min pos   269,
 dipolmoment           0.000000      0.000000     -0.426281 electrons x Angstroem
 Tr[quadrupol]      -654.013317

 energy correction for charged system         0.000000 eV
 dipol+quadrupol energy correction           -0.009450 eV
 added-field ion interaction          9.351532 eV  (added to PSCEN)


 Free energy of the ion-electron system (eV)
  ---------------------------------------------------
  alpha Z        PSCENC =        11.48432603
  Ewald energy   TEWEN  =      2893.76466982
  -Hartree energ DENC   =     -4596.01230411
  -exchange      EXHF   =         0.00000000
  -V(xc)+E(xc)   XCENC  =       129.72387447
  PAW double counting   =      5125.43398172    -5129.78414001
  entropy T*S    EENTRO =        -0.00000000
  eigenvalues    EBANDS =      -485.65071164
  atomic energy  EATOM  =      2018.74592190
  Solvation  Ecorr_sol  =         0.00000000
  ---------------------------------------------------
  free energy    TOTEN  =       -32.29438182 eV

  energy without entropy =      -32.29438182  energy(sigma->0) =      -32.29438182


--------------------------------------------------------------------------------------------------------




 average (electrostatic) potential at core
  the test charge radii are     0.9698  0.7215  0.5201
  (the norm of the test charge is              1.0000)
       1-102.2361       2 -82.2890       3 -82.2774       4 -83.0865       5 -82.2399
       6 -46.7436
 
 
 
 E-fermi :  -8.0820     XC(G=0):  -0.6805     alpha+bet : -0.0043


 spin component 1

 k-point     1 :       0.0000    0.0000    0.0000
  band No.  band energies     occupation 
      1     -30.7864      1.00000
      2     -27.3834      1.00000
      3     -26.7466      1.00000
      4     -26.7043      1.00000
      5     -17.4512      1.00000
      6     -14.6592      1.00000
      7     -13.3342      1.00000
      8     -13.2750      1.00000
      9     -11.8390      1.00000
     10     -10.5701      1.00000
     11     -10.4798      1.00000
     12     -10.3388      1.00000
     13      -9.9341      1.00000
     14      -8.7804      1.00000
     15      -8.7744      1.00000
     16      -8.3820      1.00000
     17      -1.8212      0.00000
     18      -0.4014      0.00000
     19      -0.0522      0.00000
     20       0.4717      0.00000
     21       0.6021      0.00000
     22       0.7263      0.00000
     23       0.8621      0.00000
     24       0.9821      0.00000

 spin component 2

 k-point     1 :       0.0000    0.0000    0.0000
  band No.  band energies     occupation 
      1     -30.6121      1.00000
      2     -27.2708      1.00000
      3     -26.2853      1.00000
      4     -26.2310      1.00000
      5     -17.3489      1.00000
      6     -14.4498      1.00000
      7     -13.1090      1.00000
      8     -12.9722      1.00000
      9     -11.6786      1.00000
     10     -10.3885      1.00000
     11      -9.8119      1.00000
     12      -9.6960      1.00000
     13      -9.6814      1.00000
     14      -8.5303      1.00000
     15      -8.1460      1.00000
     16      -7.5797      0.00000
     17      -1.8016      0.00000
     18      -0.3635      0.00000
     19      -0.0625      0.00000
     20       0.4735      0.00000
     21       0.6471      0.00000
     22       0.7831      0.00000
     23       0.9221      0.00000
     24       1.0311      0.00000


--------------------------------------------------------------------------------------------------------


 soft charge-density along one line, spin component           1
         0         1         2         3         4         5         6         7         8         9
 total charge-density along one line
 
 soft charge-density along one line, spin component           2
         0         1         2         3         4         5         6         7         8         9
 total charge-density along one line
 
 pseudopotential strength for first ion, spin component:           1
 44.439  51.043  -0.001   0.028  -0.002  -0.001   0.038  -0.002
 51.043  58.631  -0.001   0.032  -0.002  -0.001   0.043  -0.003
 -0.001  -0.001   9.007  -0.000   0.001  12.196  -0.000   0.002
  0.028   0.032  -0.000   9.000  -0.000  -0.000  12.187  -0.000
 -0.002  -0.002   0.001  -0.000   9.008   0.002  -0.000  12.197
 -0.001  -0.001  12.196  -0.000   0.002  16.533  -0.000   0.002
  0.038   0.043  -0.000  12.187  -0.000  -0.000  16.522  -0.000
 -0.002  -0.003   0.002  -0.000  12.197   0.002  -0.000  16.535
 pseudopotential strength for first ion, spin component:           2
 44.452  51.059  -0.001   0.026  -0.002  -0.001   0.035  -0.002
 51.059  58.649  -0.001   0.029  -0.002  -0.001   0.040  -0.003
 -0.001  -0.001   9.013  -0.000   0.001  12.204  -0.000   0.001
  0.026   0.029  -0.000   9.002  -0.000  -0.000  12.190  -0.000
 -0.002  -0.002   0.001  -0.000   9.014   0.001  -0.000  12.206
 -0.001  -0.001  12.204  -0.000   0.001  16.544  -0.000   0.002
  0.035   0.040  -0.000  12.190  -0.000  -0.000  16.525  -0.001
 -0.002  -0.003   0.001  -0.000  12.206   0.002  -0.001  16.546
 total augmentation occupancy for first ion, spin component:           1
 56.862 -45.575  -0.131  -0.595  -0.411   0.071   0.589   0.244
-45.575  37.497   0.116   0.441   0.352  -0.061  -0.478  -0.205
 -0.131   0.116  10.520  -0.102   0.122  -5.410   0.066  -0.077
 -0.595   0.441  -0.102   8.060  -0.146   0.066  -3.909   0.097
 -0.411   0.352   0.122  -0.146  10.581  -0.077   0.097  -5.452
  0.071  -0.061  -5.410   0.066  -0.077   2.970  -0.038   0.049
  0.589  -0.478   0.066  -3.909   0.097  -0.038   2.031  -0.058
  0.244  -0.205  -0.077   0.097  -5.452   0.049  -0.058   3.000
 total augmentation occupancy for first ion, spin component:           2
 -0.276   0.229   0.000  -0.036  -0.002  -0.001   0.021  -0.001
  0.229  -0.195  -0.001   0.035   0.001   0.001  -0.019   0.001
  0.000  -0.001   0.049   0.000   0.000  -0.043  -0.001  -0.000
 -0.036   0.035   0.000  -0.004  -0.001  -0.001  -0.002   0.000
 -0.002   0.001   0.000  -0.001   0.049  -0.000   0.001  -0.043
 -0.001   0.001  -0.043  -0.001  -0.000   0.026   0.001   0.000
  0.021  -0.019  -0.001  -0.002   0.001   0.001   0.001   0.000
 -0.001   0.001  -0.000   0.000  -0.043   0.000   0.000   0.026


------------------------ aborting loop because EDIFF is reached ----------------------------------------


    CHARGE:  cpu time    0.1328: real time    0.1337
    FORLOC:  cpu time    0.0433: real time    0.0435
    FORNL :  cpu time    0.3713: real time    0.3735
    STRESS:  cpu time    1.1584: real time    1.1653
    FORCOR:  cpu time    0.8407: real time    0.8454
    FORHAR:  cpu time    0.1274: real time    0.1281
    MIXING:  cpu time    0.0380: real time    0.0382
    OFIELD:  cpu time    0.0001: real time    0.0001

  FORCE on cell =-STRESS in cart. coord.  units (eV):
  Direction    XX          YY          ZZ          XY          YZ          ZX
  --------------------------------------------------------------------------------------
  Alpha Z     2.14224     2.14224     2.14224
  Ewald    2696.72821  2634.91951 -2437.88329    34.82809     5.39405    30.01782
  Hartree  3205.49092  3188.45375 -1797.92972     8.99194    -3.75279     2.43416
  E(xc)    -144.76732  -145.00841  -144.89403     0.13087     0.04098     0.12134
  Local   -6346.35432 -6281.78994  3764.24900   -35.65177     1.67402   -24.47769
  n-local   -29.71410   -29.99471   -37.96908     0.33241     0.33695     0.65969
  augment     8.91333     9.83056    11.70783    -0.52598    -0.23283    -0.51809
  Kinetic   604.27750   618.63474   641.65850    -8.28554    -3.77032    -8.76584
  Fock        0.00000     0.00000     0.00000     0.00000     0.00000     0.00000
  -------------------------------------------------------------------------------------
  Total      -3.28354    -2.81226     1.08145    -0.17998    -0.30995    -0.52860
  in kB      -3.02376    -2.58976     0.99588    -0.16574    -0.28543    -0.48678
  external pressure =       -1.54 kB  Pullay stress =        0.00 kB


 VOLUME and BASIS-vectors are now :
 -----------------------------------------------------------------------------
  energy-cutoff  :      544.00
  volume of cell :     1739.83
      direct lattice vectors                 reciprocal lattice vectors
     8.315596000  0.000000000  0.000000000     0.120255962 -0.069429620  0.000000000
     4.157788000  7.201520000  0.000000000     0.000000000  0.138859574  0.000000000
     0.000000000  0.000000000 29.052834000     0.000000000  0.000000000  0.034420050

  length of vectors
     8.315596000  8.315593266 29.052834000     0.138859528  0.138859574  0.034420050


 FORCES acting on ions
    electron-ion (+dipol)            ewald-force                    non-local-force                 convergence-correction
 -----------------------------------------------------------------------------------------------
   -.377E+01 -.417E+01 0.362E+02   0.397E+01 0.440E+01 -.427E+02   -.282E+00 -.436E+00 0.540E+01   -.142E-03 0.835E-04 0.386E-03
   -.157E+01 -.344E+03 0.136E+03   0.166E+01 0.392E+03 -.150E+03   -.186E-02 -.492E+02 0.137E+02   -.152E-03 -.276E-03 0.397E-03
   -.296E+03 0.168E+03 0.149E+03   0.336E+03 -.192E+03 -.164E+03   -.419E+02 0.243E+02 0.150E+02   -.376E-03 0.823E-04 0.370E-03
   0.474E+02 0.304E+02 -.403E+03   -.819E+02 -.473E+02 0.428E+03   0.350E+02 0.171E+02 -.240E+02   -.307E-03 -.827E-04 0.692E-03
   0.299E+03 0.169E+03 0.148E+03   -.341E+03 -.192E+03 -.163E+03   0.434E+02 0.247E+02 0.146E+02   0.130E-03 0.108E-03 0.461E-03
   -.755E+02 -.325E+02 -.881E+02   0.810E+02 0.350E+02 0.912E+02   -.619E+01 -.270E+01 -.363E+01   -.386E-04 -.116E-04 0.124E-03
 -----------------------------------------------------------------------------------------------
   -.300E+02 -.137E+02 -.211E+02   0.284E-13 0.355E-13 -.142E-13   0.300E+02 0.137E+02 0.211E+02   -.887E-03 -.970E-04 0.243E-02
 
 
 POSITION                                       TOTAL-FORCE (eV/Angst)
 -----------------------------------------------------------------------------------
      5.50798      3.15225      9.51857        -0.077656     -0.202187     -1.051802
      5.51875      4.59091      9.14538         0.085668     -1.156953      0.007273
      6.75299      2.44440      9.10518        -1.018374      0.718033      0.016188
      5.43869      3.06839     11.08757         0.553910      0.241375      1.459448
      4.26554      2.44761      9.11994         1.123314      0.674622      0.084556
      6.26245      3.43079     11.52004        -0.666861     -0.274890     -0.515663
 -----------------------------------------------------------------------------------
    total drift:                               -0.001310     -0.002301     -0.003452


--------------------------------------------------------------------------------------------------------



  FREE ENERGIE OF THE ION-ELECTRON SYSTEM (eV)
  ---------------------------------------------------
  free  energy   TOTEN  =       -32.29438182 eV

  energy  without entropy=      -32.29438182  energy(sigma->0) =      -32.29438182
 


--------------------------------------------------------------------------------------------------------


    POTLOK:  cpu time    0.8465: real time    0.8514


--------------------------------------------------------------------------------------------------------


 stress matrix after NEB project (eV)
     -3.28354     -0.17998     -0.52860
     -0.17998     -2.81226     -0.30995
     -0.52860     -0.30995      1.08145
  FORCES: max atom, RMS     1.579578    1.228644
  FORCE total and by dimension    3.009550    1.459448
  Stress total and by dimension    4.547057    3.283538
     LOOP+:  cpu time   76.5234: real time   77.5659
    4ORBIT:  cpu time    0.0000: real time    0.0000

 total amount of memory used by VASP MPI-rank0   114335. kBytes
=======================================================================

   base      :      30000. kBytes
   nonlr-proj:        796. kBytes
   fftplans  :      22218. kBytes
   grid      :      58900. kBytes
   one-center:         12. kBytes
   wavefun   :       2409. kBytes
 
  
  
 General timing and accounting informations for this job:
 ========================================================
  
                  Total CPU time used (sec):       78.364
                            User time (sec):       77.491
                          System time (sec):        0.872
                         Elapsed time (sec):       80.268
  
                   Maximum memory used (kb):      257008.
                   Average memory used (kb):           0.
  
                          Minor page faults:       338088
                          Major page faults:           58
                 Voluntary context switches:         1631
