 vasp.5.4.4.18Apr17-6-g9f103f2a35 (build Sep 01 2024 22:12:51) complex          
  
 executed on             LinuxIFC date 2024.09.23  16:48:20
 running on   16 total cores
 distrk:  each k-point on   16 cores,    1 groups
 distr:  one band on NCORES_PER_BAND=   4 cores,    4 groups


--------------------------------------------------------------------------------------------------------


 INCAR:
 POTCAR:    PAW_PBE S 06Sep2000                   
 POTCAR:    PAW_PBE O 08Apr2002                   
 POTCAR:    PAW_PBE S 06Sep2000                   
   SHA256 =  0fc7481fb0695f01bdc6462160264c5c84044ae9ec85a907d398b887a2bc3132 S/
   COPYR  = (c) Copyright 06Sep2000 Georg Kresse                                
   COPYR  = This file is part of the software VASP. Any use, copying, and all ot
   COPYR  = If you do not have a valid VASP license, you may not use, copy or di
   VRHFIN =S : s2p4                                                             
   LEXCH  = PE                                                                  
   EATOM  =   276.8230 eV,   20.3459 Ry                                         
                                                                                
   TITEL  = PAW_PBE S 06Sep2000                                                 
   LULTRA =        F    use ultrasoft PP ?                                      
   IUNSCR =        1    unscreen: 0-lin 1-nonlin 2-no                           
   RPACOR =    1.500    partial core radius                                     
   POMASS =   32.066; ZVAL   =    6.000    mass and valenz                      
   RCORE  =    1.900    outmost cutoff radius                                   
   RWIGS  =    2.200; RWIGS  =    1.164    wigner-seitz radius (au A)           
   ENMAX  =  258.689; ENMIN  =  194.016 eV                                      
   ICORE  =        2    local potential                                         
   LCOR   =        T    correct aug charges                                     
   LPAW   =        T    paw PP                                                  
   EAUG   =  335.092                                                            
   DEXC   =    0.000                                                            
   RMAX   =    1.942    core radius for proj-oper                               
   RAUG   =    1.300    factor for augmentation sphere                          
   RDEP   =    1.954    radius for radial grids                                 
   RDEPT  =    1.744    core radius for aug-charge                              
                                                                                
   Atomic configuration                                                         
    6 entries                                                                   
     n  l   j            E        occ.                                          
     1  0  0.50     -2405.8406   2.0000                                         
     2  0  0.50      -211.7007   2.0000                                         
     2  1  1.50      -156.4958   6.0000                                         
     3  0  0.50       -17.2562   2.0000                                         
     3  1  0.50        -7.0085   4.0000                                         
     3  2  1.50        -6.8029   0.0000                                         
   Description                                                                  
     l       E           TYP  RCUT    TYP  RCUT                                 
     0    -17.2561641     23  1.900                                             
     0    -15.8743224     23  1.900                                             
     1     -7.0085400     23  1.900                                             
     1     -2.7779785     23  1.900                                             
     2     -6.8029130     23  1.900                                             
  local pseudopotential read in
  partial core-charges read in
  partial kinetic energy density read in
  atomic valenz-charges read in
  non local Contribution for L=           0  read in
    real space projection operators read in
  non local Contribution for L=           0  read in
    real space projection operators read in
  non local Contribution for L=           1  read in
    real space projection operators read in
  non local Contribution for L=           1  read in
    real space projection operators read in
    PAW grid and wavefunctions read in
 
   number of l-projection  operators is LMAX  =           4
   number of lm-projection operators is LMMAX =           8
 
 POTCAR:    PAW_PBE O 08Apr2002                   
   SHA256 =  818f92134a0a090dccd8ba1447fa70422a3b330e708bb4f08108d8ae51209ddf O/
   COPYR  = (c) Copyright 08Apr2002 Georg Kresse                                
   COPYR  = This file is part of the software VASP. Any use, copying, and all ot
   COPYR  = If you do not have a valid VASP license, you may not use, copy or di
   VRHFIN =O: s2p4                                                              
   LEXCH  = PE                                                                  
   EATOM  =   432.3788 eV,   31.7789 Ry                                         
                                                                                
   TITEL  = PAW_PBE O 08Apr2002                                                 
   LULTRA =        F    use ultrasoft PP ?                                      
   IUNSCR =        1    unscreen: 0-lin 1-nonlin 2-no                           
   RPACOR =    1.200    partial core radius                                     
   POMASS =   16.000; ZVAL   =    6.000    mass and valenz                      
   RCORE  =    1.520    outmost cutoff radius                                   
   RWIGS  =    1.550; RWIGS  =    0.820    wigner-seitz radius (au A)           
   ENMAX  =  400.000; ENMIN  =  300.000 eV                                      
   ICORE  =        2    local potential                                         
   LCOR   =        T    correct aug charges                                     
   LPAW   =        T    paw PP                                                  
   EAUG   =  605.392                                                            
   DEXC   =    0.000                                                            
   RMAX   =    1.553    core radius for proj-oper                               
   RAUG   =    1.300    factor for augmentation sphere                          
   RDEP   =    1.550    radius for radial grids                                 
   RDEPT  =    1.329    core radius for aug-charge                              
                                                                                
   Atomic configuration                                                         
    4 entries                                                                   
     n  l   j            E        occ.                                          
     1  0  0.50      -514.6923   2.0000                                         
     2  0  0.50       -23.9615   2.0000                                         
     2  1  0.50        -9.0305   4.0000                                         
     3  2  1.50        -9.5241   0.0000                                         
   Description                                                                  
     l       E           TYP  RCUT    TYP  RCUT                                 
     0    -23.9615318     23  1.200                                             
     0     -9.5240782     23  1.200                                             
     1     -9.0304911     23  1.520                                             
     1      8.1634956     23  1.520                                             
     2     -9.5240782      7  1.500                                             
  local pseudopotential read in
  partial core-charges read in
  partial kinetic energy density read in
  kinetic energy density of atom read in
  atomic valenz-charges read in
  non local Contribution for L=           0  read in
    real space projection operators read in
  non local Contribution for L=           0  read in
    real space projection operators read in
  non local Contribution for L=           1  read in
    real space projection operators read in
  non local Contribution for L=           1  read in
    real space projection operators read in
    PAW grid and wavefunctions read in
 
   number of l-projection  operators is LMAX  =           4
   number of lm-projection operators is LMMAX =           8
 

 ----------------------------------------------------------------------------- 
|                                                                             |
|  ADVICE TO THIS USER RUNNING 'VASP/VAMP'   (HEAR YOUR MASTER'S VOICE ...):  |
|                                                                             |
|      You have a (more or less) 'small supercell' and for smaller cells      |
|      it is recommended  to use the reciprocal-space projection scheme!      |
|      The real space optimization is not  efficient for small cells and it   |
|      is also less accurate ...                                              |
|      Therefore set LREAL=.FALSE. in the  INCAR file                         |
|                                                                             |
 ----------------------------------------------------------------------------- 

 Optimization of the real space projectors (new method)

 maximal supplied QI-value         = 19.84
 optimisation between [QCUT,QGAM] = [ 11.91, 23.81] = [ 39.69,158.76] Ry 
 Optimized for a Real-space Cutoff    1.22 Angstroem

   l    n(q)    QCUT    max X(q) W(low)/X(q) W(high)/X(q)  e(spline) 
   0      9    11.905   187.594    0.11E-03    0.12E-03    0.65E-07
   0      9    11.905   164.243    0.11E-03    0.12E-03    0.65E-07
   1      8    11.905    67.533    0.15E-03    0.59E-04    0.88E-07
   1      8    11.905    50.729    0.15E-03    0.59E-04    0.86E-07
 Optimization of the real space projectors (new method)

 maximal supplied QI-value         = 24.76
 optimisation between [QCUT,QGAM] = [ 11.88, 23.77] = [ 39.54,158.16] Ry 
 Optimized for a Real-space Cutoff    1.18 Angstroem

   l    n(q)    QCUT    max X(q) W(low)/X(q) W(high)/X(q)  e(spline) 
   0      8    11.883    20.381    0.77E-04    0.16E-03    0.31E-06
   0      8    11.883    15.268    0.85E-04    0.17E-03    0.34E-06
   1      8    11.883     5.964    0.17E-03    0.30E-04    0.33E-06
   1      8    11.883     5.382    0.15E-03    0.14E-04    0.29E-06
  PAW_PBE S 06Sep2000                   :
 energy of atom  1       EATOM= -276.8230
 kinetic energy error for atom=    0.0012 (will be added to EATOM!!)
  PAW_PBE O 08Apr2002                   :
 energy of atom  2       EATOM= -432.3788
 kinetic energy error for atom=    0.0196 (will be added to EATOM!!)
 
 
 POSCAR:  S  O                                   
  positions in cartesian coordinates
  No initial velocities read in
 exchange correlation table for  LEXCH =        8
   RHO(1)=    0.500       N(1)  =     2000
   RHO(2)=  100.500       N(2)  =     4000

 VTST: version 3.2, (02/03/18)

 CHAIN: initializing optimizer
 
 OPT: Using VASP Dynamics algorithm
 CHAIN: Read ICHAIN            0
 
 POSCAR:  S  O                                   
  positions in cartesian coordinates
  No initial velocities read in
 


--------------------------------------------------------------------------------------------------------


 ion  position               nearest neighbor table
   1  0.529  0.402  0.308-   4 1.45   3 1.54   2 1.54
   2  0.401  0.615  0.307-   1 1.54
   3  0.401  0.317  0.307-   1 1.54
   4  0.645  0.343  0.348-   1 1.45
 

IMPORTANT INFORMATION: All symmetrisations will be switched off!
NOSYMM: (Re-)initialisation of all symmetry stuff for point group C_1.

 
 
 KPOINTS: K-Point Grid                            

Automatic generation of k-mesh.
Space group operators:
 irot       det(A)        alpha          n_x          n_y          n_z        tau_x        tau_y        tau_z
    1     1.000000     0.000000     1.000000     0.000000     0.000000     0.000000     0.000000     0.000000
 
 Subroutine IBZKPT returns following result:
 ===========================================
 
 Found      1 irreducible k-points:
 
 Following reciprocal coordinates:
            Coordinates               Weight
  0.000000  0.000000  0.000000      1.000000
 
 Following cartesian coordinates:
            Coordinates               Weight
  0.000000  0.000000  0.000000      1.000000
 


--------------------------------------------------------------------------------------------------------




 Dimension of arrays:
   k-points           NKPTS =      1   k-points in BZ     NKDIM =      1   number of bands    NBANDS=     20
   number of dos      NEDOS =    301   number of ions     NIONS =      4
   non local maximal  LDIM  =      4   non local SUM 2l+1 LMDIM =      8
   total plane-waves  NPLWV = 917504
   max r-space proj   IRMAX =   4054   max aug-charges    IRDMAX=  16812
   dimension x,y,z NGX =    64 NGY =   64 NGZ =  224
   dimension x,y,z NGXF=   128 NGYF=  128 NGZF=  448
   support grid    NGXF=   128 NGYF=  128 NGZF=  448
   ions per type =               1   3
   NGX,Y,Z   is equivalent  to a cutoff of  12.79, 12.79, 12.82 a.u.
   NGXF,Y,Z  is equivalent  to a cutoff of  25.59, 25.59, 25.64 a.u.

 SYSTEM =  DIPOLE RUNS                             
 POSCAR =   S  O                                   

 Startparameter for this run:
   NWRITE =      2    write-flag & timer
   PREC   = accura    normal or accurate (medium, high low for compatibility)
   ISTART =      0    job   : 0-new  1-cont  2-samecut
   ICHARG =      2    charge: 1-file 2-atom 10-const
   ISPIN  =      2    spin polarized calculation?
   LNONCOLLINEAR =      F non collinear calculations
   LSORBIT =      F    spin-orbit coupling
   INIWAV =      1    electr: 0-lowe 1-rand  2-diag
   LASPH  =      F    aspherical Exc in radial PAW
   METAGGA=      F    non-selfconsistent MetaGGA calc.

 Electronic Relaxation 1
   ENCUT  =  544.0 eV  39.98 Ry    6.32 a.u.  15.81 15.81 55.25*2*pi/ulx,y,z
   ENINI  =  544.0     initial cutoff
   ENAUG  =  605.4 eV  augmentation charge cutoff
   NELM   =    400;   NELMIN=  2; NELMDL= -5     # of ELM steps 
   EDIFF  = 0.1E-04   stopping-criterion for ELM
   LREAL  =      T    real-space projection
   NLSPLINE    = F    spline interpolate recip. space projectors
   LCOMPAT=      F    compatible to vasp.4.4
   GGA_COMPAT  = T    GGA compatible to vasp.4.4-vasp.4.6
   LMAXPAW     = -100 max onsite density
   LMAXMIX     =    2 max onsite mixed and CHGCAR
   VOSKOWN=      0    Vosko Wilk Nusair interpolation
   ROPT   =   -0.00025  -0.00025
 Ionic relaxation
   EDIFFG = -.1E-01   stopping-criterion for IOM
   NSW    =      0    number of steps for IOM
   NBLOCK =      1;   KBLOCK =      1    inner block; outer block 
   IBRION =     -1    ionic relax: 0-MD 1-quasi-New 2-CG
   NFREE  =      0    steps in history (QN), initial steepest desc. (CG)
   ISIF   =      2    stress and relaxation
   IWAVPR =     10    prediction:  0-non 1-charg 2-wave 3-comb
   ISYM   =      0    0-nonsym 1-usesym 2-fastsym
   LCORR  =      T    Harris-Foulkes like correction to forces

   POTIM  = 0.5000    time-step for ionic-motion
   TEIN   =    0.0    initial temperature
   TEBEG  =    0.0;   TEEND  =   0.0 temperature during run
   SMASS  =  -3.00    Nose mass-parameter (am)
   estimated Nose-frequenzy (Omega)   =  0.10E-29 period in steps =****** mass=  -0.158E-26a.u.
   SCALEE = 1.0000    scale energy and forces
   NPACO  =    256;   APACO  = 16.0  distance and # of slots for P.C.
   PSTRESS=    0.0 pullay stress

  Mass of Ions in am
   POMASS =  32.07 16.00
  Ionic Valenz
   ZVAL   =   6.00  6.00
  Atomic Wigner-Seitz radii
   RWIGS  =  -1.00 -1.00
  virtual crystal weights 
   VCA    =   1.00  1.00
   NELECT =      24.0000    total number of electrons
   NUPDOWN=      -1.0000    fix difference up-down

 DOS related values:
   EMIN   =  10.00;   EMAX   =-10.00  energy-range for DOS
   EFERMI =   0.00
   ISMEAR =     0;   SIGMA  =   0.00  broadening in eV -4-tet -1-fermi 0-gaus

 Electronic relaxation 2 (details)
   IALGO  =     68    algorithm
   LDIAG  =      T    sub-space diagonalisation (order eigenvalues)
   LSUBROT=      F    optimize rotation matrix (better conditioning)
   TURBO    =      0    0=normal 1=particle mesh
   IRESTART =      0    0=no restart 2=restart with 2 vectors
   NREBOOT  =      0    no. of reboots
   NMIN     =      0    reboot dimension
   EREF     =   0.00    reference energy to select bands
   IMIX   =      4    mixing-type and parameters
     AMIX     =   0.40;   BMIX     =  1.00
     AMIX_MAG =   1.60;   BMIX_MAG =  1.00
     AMIN     =   0.10
     WC   =   100.;   INIMIX=   1;  MIXPRE=   1;  MAXMIX= -45

 Intra band minimization:
   WEIMIN = 0.0000     energy-eigenvalue tresh-hold
   EBREAK =  0.13E-06  absolut break condition
   DEPER  =   0.30     relativ break condition  

   TIME   =   0.40     timestep for ELM

  volume/ion in A,a.u.               =     434.96      2935.23
  Fermi-wavevector in a.u.,A,eV,Ry     =   0.392624  0.741951  2.097384  0.154153
  Thomas-Fermi vector in A             =   1.336110
 
 Write flags
   LWAVE        =      F    write WAVECAR
   LDOWNSAMPLE  =      F    k-point downsampling of WAVECAR
   LCHARG       =      F    write CHGCAR
   LVTOT        =      F    write LOCPOT, total local potential
   LVHAR        =      F    write LOCPOT, Hartree potential only
   LELF         =      F    write electronic localiz. function (ELF)
   LORBIT       =      0    0 simple, 1 ext, 2 COOP (PROOUT), +10 PAW based schemes


 Dipole corrections
   LMONO  =      F    monopole corrections only (constant potential shift)
   LDIPOL =      T    correct potential (dipole corrections)
   IDIPOL =      3    1-x, 2-y, 3-z, 4-all directions 
   EPSILON=  1.0000000 bulk dielectric constant

 Exchange correlation treatment:
   GGA     =    PE    GGA type
   LEXCH   =     8    internal setting for exchange type
   VOSKOWN=      0    Vosko Wilk Nusair interpolation
   LHFCALC =     F    Hartree Fock is set to
   LHFONE  =     F    Hartree Fock one center treatment
   AEXX    =    0.0000 exact exchange contribution

 Linear response parameters
   LEPSILON=     F    determine dielectric tensor
   LRPA    =     F    only Hartree local field effects (RPA)
   LNABLA  =     F    use nabla operator in PAW spheres
   LVEL    =     F    velocity operator in full k-point grid
   LINTERFAST=   F  fast interpolation
   KINTER  =     0    interpolate to denser k-point grid
   CSHIFT  =0.1000    complex shift for real part using Kramers Kronig
   OMEGAMAX=  -1.0    maximum frequency
   DEG_THRESHOLD= 0.2000000E-02 threshold for treating states as degnerate
   RTIME   =   -0.100 relaxation time in fs
  (WPLASMAI=    0.000 imaginary part of plasma frequency in eV, 0.658/RTIME)
   DFIELD  = 0.0000000 0.0000000 0.0000000 field for delta impulse in time
 
 Orbital magnetization related:
   ORBITALMAG=     F  switch on orbital magnetization
   LCHIMAG   =     F  perturbation theory with respect to B field
   DQ        =  0.001000  dq finite difference perturbation B field
   LLRAUG    =     F  two centre corrections for induced B field



--------------------------------------------------------------------------------------------------------


 Static calculation
 charge density and potential will be updated during run
 spin polarized calculation
 RMM-DIIS sequential band-by-band and
  variant of blocked Davidson during initial phase
 perform sub-space diagonalisation
    before iterative eigenvector-optimisation
 modified Broyden-mixing scheme, WC =      100.0
 initial mixing is a Kerker type mixing with AMIX =  0.4000 and BMIX =      1.0000
 Hartree-type preconditioning will be used
 using additional bands            8
 real space projection scheme for non local part
 use partial core corrections
 calculate Harris-corrections to forces 
   (improved forces if not selfconsistent)
 use gradient corrections 
 use of overlap-Matrix (Vanderbilt PP)
 Gauss-broadening in eV      SIGMA  =   0.00


--------------------------------------------------------------------------------------------------------


  energy-cutoff  :      544.00
  volume of cell :     1739.83
      direct lattice vectors                 reciprocal lattice vectors
     8.315596000  0.000000000  0.000000000     0.120255962 -0.069429620  0.000000000
     4.157788000  7.201520000  0.000000000     0.000000000  0.138859574  0.000000000
     0.000000000  0.000000000 29.052834000     0.000000000  0.000000000  0.034420050

  length of vectors
     8.315596000  8.315593266 29.052834000     0.138859528  0.138859574  0.034420050


 
 k-points in units of 2pi/SCALE and weight: K-Point Grid                            
   0.00000000  0.00000000  0.00000000       1.000
 
 k-points in reciprocal lattice and weights: K-Point Grid                            
   0.00000000  0.00000000  0.00000000       1.000
 
 position of ions in fractional coordinates (direct lattice) 
   0.52853205  0.40201305  0.30769539
   0.40122458  0.61475272  0.30703504
   0.40082477  0.31706237  0.30702285
   0.64532784  0.34349332  0.34849354
 
 position of ions in cartesian coordinates  (Angst):
   6.06654400  2.89510500  8.93942300
   5.89243300  4.42715400  8.92023800
   4.65137500  2.28333100  8.91988400
   6.79445800  2.47367400 10.12472500
 


--------------------------------------------------------------------------------------------------------


 k-point  1 :   0.0000 0.0000 0.0000  plane waves:   50139

 maximum and minimum number of plane-waves per node :     12536    12533

 maximum number of plane-waves:     50139
 maximum index in each direction: 
   IXMAX=   15   IYMAX=   15   IZMAX=   55
   IXMIN=  -15   IYMIN=  -15   IZMIN=  -55


 real space projection operators:
  total allocation   :        909.25 KBytes
  max/ min on nodes  :        229.50        225.00


 parallel 3D FFT for wavefunctions:
    minimum data exchange during FFTs selected (reduces bandwidth)
 parallel 3D FFT for charge:
    minimum data exchange during FFTs selected (reduces bandwidth)


 total amount of memory used by VASP MPI-rank0   109993. kBytes
=======================================================================

   base      :      30000. kBytes
   nonlr-proj:        548. kBytes
   fftplans  :      22218. kBytes
   grid      :      55214. kBytes
   one-center:          6. kBytes
   wavefun   :       2007. kBytes
 
     INWAV:  cpu time    0.0002: real time    0.0004
 Broyden mixing: mesh for mixing (old mesh)
   NGX = 31   NGY = 31   NGZ =111
  (NGX  =128   NGY  =128   NGZ  =448)
  gives a total of 106671 points

 initial charge density was supplied:
 charge density of overlapping atoms calculated
 number of electron      24.0000000 magnetization       4.0000000
 keeping initial charge density in first step


--------------------------------------------------------------------------------------------------------


 Maximum index for non-local projection operator          967
 Maximum index for augmentation-charges         1013 (set IRDMAX)


--------------------------------------------------------------------------------------------------------


 First call to EWALD:  gamma=   0.147
 Maximum number of real-space cells 4x 4x 1
 Maximum number of reciprocal cells 2x 2x 6

    FEWALD:  cpu time    0.0013: real time    0.0013


--------------------------------------- Iteration      1(   1)  ---------------------------------------


    POTLOK:  cpu time    0.7379: real time    0.7448
    SETDIJ:  cpu time    0.0155: real time    0.0155
     EDDAV:  cpu time    0.7744: real time    0.7791
       DOS:  cpu time    0.0003: real time    0.0003
    --------------------------------------------
      LOOP:  cpu time    1.5280: real time    1.5398

 eigenvalue-minimisations  :   104
 total energy-change (2. order) : 0.2198946E+03  (-0.6000549E+03)
 number of electron      24.0000000 magnetization       4.0000000
 augmentation part       24.0000000 magnetization       4.0000000

 DIPCOR: dipole corrections for dipol
 direction  3 min pos   269,
 dipolmoment           0.000000      0.000000     -0.000082 electrons x Angstroem
 Tr[quadrupol]      -494.449395

 energy correction for charged system         0.000000 eV
 dipol+quadrupol energy correction           -0.000000 eV
 added-field ion interaction          0.001303 eV  (added to PSCEN)


 Free energy of the ion-electron system (eV)
  ---------------------------------------------------
  alpha Z        PSCENC =         1.30674185
  Ewald energy   TEWEN  =      1702.98029128
  -Hartree energ DENC   =     -3000.87790145
  -exchange      EXHF   =         0.00000000
  -V(xc)+E(xc)   XCENC  =        95.39481837
  PAW double counting   =      1256.62362429    -1258.80445652
  entropy T*S    EENTRO =        -0.00000000
  eigenvalues    EBANDS =      -150.62777192
  atomic energy  EATOM  =      1573.89928564
  Solvation  Ecorr_sol  =         0.00000000
  ---------------------------------------------------
  free energy    TOTEN  =       219.89463154 eV

  energy without entropy =      219.89463154  energy(sigma->0) =      219.89463154


--------------------------------------------------------------------------------------------------------




--------------------------------------- Iteration      1(   2)  ---------------------------------------


     EDDAV:  cpu time    1.0734: real time    1.0800
       DOS:  cpu time    0.0002: real time    0.0002
    --------------------------------------------
      LOOP:  cpu time    1.0736: real time    1.0802

 eigenvalue-minimisations  :   160
 total energy-change (2. order) :-0.1637630E+03  (-0.1602645E+03)
 number of electron      24.0000000 magnetization       4.0000000
 augmentation part       24.0000000 magnetization       4.0000000

 DIPCOR: dipole corrections for dipol
 direction  3 min pos   269,
 dipolmoment           0.000000      0.000000     -0.000082 electrons x Angstroem
 Tr[quadrupol]      -494.449395

 energy correction for charged system         0.000000 eV
 dipol+quadrupol energy correction           -0.000000 eV
 added-field ion interaction          0.001303 eV  (added to PSCEN)


 Free energy of the ion-electron system (eV)
  ---------------------------------------------------
  alpha Z        PSCENC =         1.30674185
  Ewald energy   TEWEN  =      1702.98029128
  -Hartree energ DENC   =     -3000.87790145
  -exchange      EXHF   =         0.00000000
  -V(xc)+E(xc)   XCENC  =        95.39481837
  PAW double counting   =      1256.62362429    -1258.80445652
  entropy T*S    EENTRO =        -0.00030641
  eigenvalues    EBANDS =      -314.39046032
  atomic energy  EATOM  =      1573.89928564
  Solvation  Ecorr_sol  =         0.00000000
  ---------------------------------------------------
  free energy    TOTEN  =        56.13163673 eV

  energy without entropy =       56.13194314  energy(sigma->0) =       56.13178993


--------------------------------------------------------------------------------------------------------




--------------------------------------- Iteration      1(   3)  ---------------------------------------


     EDDAV:  cpu time    0.7444: real time    1.1852
       DOS:  cpu time    0.0001: real time    0.0001
    --------------------------------------------
      LOOP:  cpu time    0.7445: real time    1.1853

 eigenvalue-minimisations  :   104
 total energy-change (2. order) :-0.7381396E+02  (-0.7245166E+02)
 number of electron      24.0000000 magnetization       4.0000000
 augmentation part       24.0000000 magnetization       4.0000000

 DIPCOR: dipole corrections for dipol
 direction  3 min pos   269,
 dipolmoment           0.000000      0.000000     -0.000082 electrons x Angstroem
 Tr[quadrupol]      -494.449395

 energy correction for charged system         0.000000 eV
 dipol+quadrupol energy correction           -0.000000 eV
 added-field ion interaction          0.001303 eV  (added to PSCEN)


 Free energy of the ion-electron system (eV)
  ---------------------------------------------------
  alpha Z        PSCENC =         1.30674185
  Ewald energy   TEWEN  =      1702.98029128
  -Hartree energ DENC   =     -3000.87790145
  -exchange      EXHF   =         0.00000000
  -V(xc)+E(xc)   XCENC  =        95.39481837
  PAW double counting   =      1256.62362429    -1258.80445652
  entropy T*S    EENTRO =        -0.00000000
  eigenvalues    EBANDS =      -388.20472237
  atomic energy  EATOM  =      1573.89928564
  Solvation  Ecorr_sol  =         0.00000000
  ---------------------------------------------------
  free energy    TOTEN  =       -17.68231891 eV

  energy without entropy =      -17.68231891  energy(sigma->0) =      -17.68231891


--------------------------------------------------------------------------------------------------------




--------------------------------------- Iteration      1(   4)  ---------------------------------------


     EDDAV:  cpu time    0.7026: real time    0.7067
       DOS:  cpu time    0.0001: real time    0.0001
    --------------------------------------------
      LOOP:  cpu time    0.7027: real time    0.7068

 eigenvalue-minimisations  :    96
 total energy-change (2. order) :-0.6026166E+01  (-0.6011734E+01)
 number of electron      24.0000000 magnetization       4.0000000
 augmentation part       24.0000000 magnetization       4.0000000

 DIPCOR: dipole corrections for dipol
 direction  3 min pos   269,
 dipolmoment           0.000000      0.000000     -0.000082 electrons x Angstroem
 Tr[quadrupol]      -494.449395

 energy correction for charged system         0.000000 eV
 dipol+quadrupol energy correction           -0.000000 eV
 added-field ion interaction          0.001303 eV  (added to PSCEN)


 Free energy of the ion-electron system (eV)
  ---------------------------------------------------
  alpha Z        PSCENC =         1.30674185
  Ewald energy   TEWEN  =      1702.98029128
  -Hartree energ DENC   =     -3000.87790145
  -exchange      EXHF   =         0.00000000
  -V(xc)+E(xc)   XCENC  =        95.39481837
  PAW double counting   =      1256.62362429    -1258.80445652
  entropy T*S    EENTRO =         0.00000000
  eigenvalues    EBANDS =      -394.23088859
  atomic energy  EATOM  =      1573.89928564
  Solvation  Ecorr_sol  =         0.00000000
  ---------------------------------------------------
  free energy    TOTEN  =       -23.70848513 eV

  energy without entropy =      -23.70848513  energy(sigma->0) =      -23.70848513


--------------------------------------------------------------------------------------------------------




--------------------------------------- Iteration      1(   5)  ---------------------------------------


     EDDAV:  cpu time    0.8421: real time    0.8479
       DOS:  cpu time    0.0002: real time    0.0002
    CHARGE:  cpu time    0.0890: real time    0.0895
    MIXING:  cpu time    0.0229: real time    0.0230
    --------------------------------------------
      LOOP:  cpu time    0.9542: real time    0.9607

 eigenvalue-minimisations  :   120
 total energy-change (2. order) :-0.9375670E-01  (-0.9354898E-01)
 number of electron      23.9999998 magnetization       3.7140364
 augmentation part        1.5525544 magnetization       3.7751289

 DIPCOR: dipole corrections for dipol
 direction  3 min pos   269,
 dipolmoment           0.000000      0.000000     -0.000082 electrons x Angstroem
 Tr[quadrupol]      -494.449395

 energy correction for charged system         0.000000 eV
 dipol+quadrupol energy correction           -0.000000 eV
 added-field ion interaction          0.001303 eV  (added to PSCEN)


 Broyden mixing:
  rms(total) = 0.34569E+01    rms(broyden)= 0.34566E+01
  rms(prec ) = 0.34818E+01
  weight for this iteration     100.00

 Free energy of the ion-electron system (eV)
  ---------------------------------------------------
  alpha Z        PSCENC =         1.30674185
  Ewald energy   TEWEN  =      1702.98029128
  -Hartree energ DENC   =     -3000.87790145
  -exchange      EXHF   =         0.00000000
  -V(xc)+E(xc)   XCENC  =        95.39481837
  PAW double counting   =      1256.62362429    -1258.80445652
  entropy T*S    EENTRO =         0.00000000
  eigenvalues    EBANDS =      -394.32464529
  atomic energy  EATOM  =      1573.89928564
  Solvation  Ecorr_sol  =         0.00000000
  ---------------------------------------------------
  free energy    TOTEN  =       -23.80224183 eV

  energy without entropy =      -23.80224183  energy(sigma->0) =      -23.80224183


--------------------------------------------------------------------------------------------------------




--------------------------------------- Iteration      1(   6)  ---------------------------------------


    POTLOK:  cpu time    0.7332: real time    0.7377
    SETDIJ:  cpu time    0.0127: real time    0.0128
    EDDIAG:  cpu time    0.1373: real time    0.1380
  RMM-DIIS:  cpu time    0.5835: real time    0.5866
    ORTHCH:  cpu time    0.0084: real time    0.0084
       DOS:  cpu time    0.0002: real time    0.0002
    CHARGE:  cpu time    0.0889: real time    0.0893
    MIXING:  cpu time    0.0228: real time    0.0229
    --------------------------------------------
      LOOP:  cpu time    1.5869: real time    1.5958

 eigenvalue-minimisations  :    94
 total energy-change (2. order) : 0.1472413E+02  (-0.2820756E+01)
 number of electron      23.9999998 magnetization       3.3389773
 augmentation part        1.0261567 magnetization       3.2249504

 DIPCOR: dipole corrections for dipol
 direction  3 min pos   269,
 dipolmoment           0.000000      0.000000      0.104558 electrons x Angstroem
 Tr[quadrupol]      -493.235935

 energy correction for charged system         0.000000 eV
 dipol+quadrupol energy correction           -0.000569 eV
 added-field ion interaction         -1.663221 eV  (added to PSCEN)


 Broyden mixing:
  rms(total) = 0.18988E+01    rms(broyden)= 0.18987E+01
  rms(prec ) = 0.19005E+01
  weight for this iteration     100.00

 eigenvalues of (default mixing * dielectric matrix)
  average eigenvalue GAMMA=   1.2008
  1.2008

 Free energy of the ion-electron system (eV)
  ---------------------------------------------------
  alpha Z        PSCENC =        -0.35835112
  Ewald energy   TEWEN  =      1702.98029128
  -Hartree energ DENC   =     -3034.09293305
  -exchange      EXHF   =         0.00000000
  -V(xc)+E(xc)   XCENC  =       106.53075407
  PAW double counting   =      2052.62944512    -2055.33223704
  entropy T*S    EENTRO =        -0.00000000
  eigenvalues    EBANDS =      -355.33436193
  atomic energy  EATOM  =      1573.89928564
  Solvation  Ecorr_sol  =         0.00000000
  ---------------------------------------------------
  free energy    TOTEN  =        -9.07810703 eV

  energy without entropy =       -9.07810703  energy(sigma->0) =       -9.07810703


--------------------------------------------------------------------------------------------------------




--------------------------------------- Iteration      1(   7)  ---------------------------------------


    POTLOK:  cpu time    0.7281: real time    0.7321
    SETDIJ:  cpu time    0.0130: real time    0.0130
    EDDIAG:  cpu time    0.1377: real time    0.1384
  RMM-DIIS:  cpu time    0.5268: real time    0.5294
    ORTHCH:  cpu time    0.0084: real time    0.0084
       DOS:  cpu time    0.0001: real time    0.0001
    CHARGE:  cpu time    0.0924: real time    0.0929
    MIXING:  cpu time    0.0200: real time    0.0201
    --------------------------------------------
      LOOP:  cpu time    1.5265: real time    1.5344

 eigenvalue-minimisations  :    89
 total energy-change (2. order) :-0.7325340E+01  (-0.4780730E+00)
 number of electron      23.9999998 magnetization       2.9854124
 augmentation part        0.9738635 magnetization       2.9122549

 DIPCOR: dipole corrections for dipol
 direction  3 min pos   269,
 dipolmoment           0.000000      0.000000      0.128539 electrons x Angstroem
 Tr[quadrupol]      -493.016636

 energy correction for charged system         0.000000 eV
 dipol+quadrupol energy correction           -0.000859 eV
 added-field ion interaction         -2.044690 eV  (added to PSCEN)


 Broyden mixing:
  rms(total) = 0.77778E+00    rms(broyden)= 0.77775E+00
  rms(prec ) = 0.78064E+00
  weight for this iteration     100.00

 eigenvalues of (default mixing * dielectric matrix)
  average eigenvalue GAMMA=   1.2747
  0.8358  1.7137

 Free energy of the ion-electron system (eV)
  ---------------------------------------------------
  alpha Z        PSCENC =        -0.74011098
  Ewald energy   TEWEN  =      1702.98029128
  -Hartree energ DENC   =     -3039.17383961
  -exchange      EXHF   =         0.00000000
  -V(xc)+E(xc)   XCENC  =       101.30234661
  PAW double counting   =      2968.76236868    -2971.27347788
  entropy T*S    EENTRO =         0.00000000
  eigenvalues    EBANDS =      -352.16031041
  atomic energy  EATOM  =      1573.89928564
  Solvation  Ecorr_sol  =         0.00000000
  ---------------------------------------------------
  free energy    TOTEN  =       -16.40344667 eV

  energy without entropy =      -16.40344667  energy(sigma->0) =      -16.40344667


--------------------------------------------------------------------------------------------------------




--------------------------------------- Iteration      1(   8)  ---------------------------------------


    POTLOK:  cpu time    0.7286: real time    0.7331
    SETDIJ:  cpu time    0.0124: real time    0.0125
    EDDIAG:  cpu time    0.1372: real time    0.1379
  RMM-DIIS:  cpu time    0.5636: real time    0.5665
    ORTHCH:  cpu time    0.0085: real time    0.0085
       DOS:  cpu time    0.0002: real time    0.0002
    CHARGE:  cpu time    0.0888: real time    0.0892
    MIXING:  cpu time    0.0218: real time    0.0219
    --------------------------------------------
      LOOP:  cpu time    1.5611: real time    1.5698

 eigenvalue-minimisations  :    94
 total energy-change (2. order) :-0.1760322E+01  (-0.9821026E-01)
 number of electron      23.9999999 magnetization       2.7755221
 augmentation part        1.0154789 magnetization       2.7439720

 DIPCOR: dipole corrections for dipol
 direction  3 min pos   269,
 dipolmoment           0.000000      0.000000      0.125124 electrons x Angstroem
 Tr[quadrupol]      -493.164014

 energy correction for charged system         0.000000 eV
 dipol+quadrupol energy correction           -0.000814 eV
 added-field ion interaction         -1.990371 eV  (added to PSCEN)


 Broyden mixing:
  rms(total) = 0.35287E+00    rms(broyden)= 0.35277E+00
  rms(prec ) = 0.35770E+00
  weight for this iteration     100.00

 eigenvalues of (default mixing * dielectric matrix)
  average eigenvalue GAMMA=   1.2719
  2.1672  1.0237  0.6247

 Free energy of the ion-electron system (eV)
  ---------------------------------------------------
  alpha Z        PSCENC =        -0.68574652
  Ewald energy   TEWEN  =      1702.98029128
  -Hartree energ DENC   =     -3037.14476039
  -exchange      EXHF   =         0.00000000
  -V(xc)+E(xc)   XCENC  =        99.54656772
  PAW double counting   =      3453.16191752    -3455.52786479
  entropy T*S    EENTRO =        -0.00000000
  eigenvalues    EBANDS =      -354.39345902
  atomic energy  EATOM  =      1573.89928564
  Solvation  Ecorr_sol  =         0.00000000
  ---------------------------------------------------
  free energy    TOTEN  =       -18.16376856 eV

  energy without entropy =      -18.16376856  energy(sigma->0) =      -18.16376856


--------------------------------------------------------------------------------------------------------




--------------------------------------- Iteration      1(   9)  ---------------------------------------


    POTLOK:  cpu time    0.7278: real time    0.7318
    SETDIJ:  cpu time    0.0134: real time    0.0134
    EDDIAG:  cpu time    0.1384: real time    0.1391
  RMM-DIIS:  cpu time    0.5994: real time    0.6023
    ORTHCH:  cpu time    0.0088: real time    0.0088
       DOS:  cpu time    0.0002: real time    0.0002
    CHARGE:  cpu time    0.0872: real time    0.0876
    MIXING:  cpu time    0.0245: real time    0.0246
    --------------------------------------------
      LOOP:  cpu time    1.5995: real time    1.6079

 eigenvalue-minimisations  :    99
 total energy-change (2. order) :-0.2320294E+00  (-0.1424364E-01)
 number of electron      23.9999998 magnetization       2.5947764
 augmentation part        1.0213382 magnetization       2.5716443

 DIPCOR: dipole corrections for dipol
 direction  3 min pos   269,
 dipolmoment           0.000000      0.000000      0.143171 electrons x Angstroem
 Tr[quadrupol]      -492.932732

 energy correction for charged system         0.000000 eV
 dipol+quadrupol energy correction           -0.001066 eV
 added-field ion interaction         -2.277444 eV  (added to PSCEN)


 Broyden mixing:
  rms(total) = 0.12508E+00    rms(broyden)= 0.12499E+00
  rms(prec ) = 0.12623E+00
  weight for this iteration     100.00

 eigenvalues of (default mixing * dielectric matrix)
  average eigenvalue GAMMA=   1.1609
  2.2057  0.9711  0.8522  0.6148

 Free energy of the ion-electron system (eV)
  ---------------------------------------------------
  alpha Z        PSCENC =        -0.97307167
  Ewald energy   TEWEN  =      1702.98029128
  -Hartree energ DENC   =     -3037.17224185
  -exchange      EXHF   =         0.00000000
  -V(xc)+E(xc)   XCENC  =        99.29537044
  PAW double counting   =      3579.83942106    -3582.18434958
  entropy T*S    EENTRO =        -0.00000000
  eigenvalues    EBANDS =      -354.08050329
  atomic energy  EATOM  =      1573.89928564
  Solvation  Ecorr_sol  =         0.00000000
  ---------------------------------------------------
  free energy    TOTEN  =       -18.39579797 eV

  energy without entropy =      -18.39579797  energy(sigma->0) =      -18.39579797


--------------------------------------------------------------------------------------------------------




--------------------------------------- Iteration      1(  10)  ---------------------------------------


    POTLOK:  cpu time    0.7306: real time    0.7358
    SETDIJ:  cpu time    0.0122: real time    0.0122
    EDDIAG:  cpu time    0.1373: real time    0.1379
  RMM-DIIS:  cpu time    0.6073: real time    0.6101
    ORTHCH:  cpu time    0.0083: real time    0.0083
       DOS:  cpu time    0.0002: real time    0.0002
    CHARGE:  cpu time    0.0878: real time    0.0883
    MIXING:  cpu time    0.0238: real time    0.0239
    --------------------------------------------
      LOOP:  cpu time    1.6075: real time    1.6167

 eigenvalue-minimisations  :    94
 total energy-change (2. order) :-0.4360609E+00  (-0.3260347E-02)
 number of electron      23.9999998 magnetization       2.4999595
 augmentation part        1.0030636 magnetization       2.4775211

 DIPCOR: dipole corrections for dipol
 direction  3 min pos   269,
 dipolmoment           0.000000      0.000000      0.152137 electrons x Angstroem
 Tr[quadrupol]      -492.841495

 energy correction for charged system         0.000000 eV
 dipol+quadrupol energy correction           -0.001204 eV
 added-field ion interaction         -2.420063 eV  (added to PSCEN)


 Broyden mixing:
  rms(total) = 0.12983E+00    rms(broyden)= 0.12963E+00
  rms(prec ) = 0.13012E+00
  weight for this iteration     100.00

 eigenvalues of (default mixing * dielectric matrix)
  average eigenvalue GAMMA=   0.9554
  2.2006  0.9720  0.8507  0.6161  0.1378

 Free energy of the ion-electron system (eV)
  ---------------------------------------------------
  alpha Z        PSCENC =        -1.11582786
  Ewald energy   TEWEN  =      1702.98029128
  -Hartree energ DENC   =     -3037.61901662
  -exchange      EXHF   =         0.00000000
  -V(xc)+E(xc)   XCENC  =        98.92954859
  PAW double counting   =      3605.40472019    -3607.74926994
  entropy T*S    EENTRO =        -0.00000000
  eigenvalues    EBANDS =      -353.56159019
  atomic energy  EATOM  =      1573.89928564
  Solvation  Ecorr_sol  =         0.00000000
  ---------------------------------------------------
  free energy    TOTEN  =       -18.83185890 eV

  energy without entropy =      -18.83185890  energy(sigma->0) =      -18.83185890


--------------------------------------------------------------------------------------------------------




--------------------------------------- Iteration      1(  11)  ---------------------------------------


    POTLOK:  cpu time    0.7292: real time    0.7332
    SETDIJ:  cpu time    0.0124: real time    0.0124
    EDDIAG:  cpu time    0.1383: real time    0.1391
  RMM-DIIS:  cpu time    0.6178: real time    0.6206
    ORTHCH:  cpu time    0.0085: real time    0.0085
       DOS:  cpu time    0.0003: real time    0.0003
    CHARGE:  cpu time    0.0887: real time    0.0891
    MIXING:  cpu time    0.0239: real time    0.0241
    --------------------------------------------
      LOOP:  cpu time    1.6191: real time    1.6273

 eigenvalue-minimisations  :    98
 total energy-change (2. order) :-0.5442650E-01  (-0.1250581E-02)
 number of electron      23.9999998 magnetization       2.5008313
 augmentation part        0.9953490 magnetization       2.4780209

 DIPCOR: dipole corrections for dipol
 direction  3 min pos   269,
 dipolmoment           0.000000      0.000000      0.155631 electrons x Angstroem
 Tr[quadrupol]      -492.802082

 energy correction for charged system         0.000000 eV
 dipol+quadrupol energy correction           -0.001260 eV
 added-field ion interaction         -2.475648 eV  (added to PSCEN)


 Broyden mixing:
  rms(total) = 0.15144E+00    rms(broyden)= 0.15126E+00
  rms(prec ) = 0.15196E+00
  weight for this iteration     100.00

 eigenvalues of (default mixing * dielectric matrix)
  average eigenvalue GAMMA=   0.9971
  2.1855  0.7410  0.9539  0.9539  0.6224  0.5261

 Free energy of the ion-electron system (eV)
  ---------------------------------------------------
  alpha Z        PSCENC =        -1.17146913
  Ewald energy   TEWEN  =      1702.98029128
  -Hartree energ DENC   =     -3037.42172768
  -exchange      EXHF   =         0.00000000
  -V(xc)+E(xc)   XCENC  =        98.89909519
  PAW double counting   =      3614.97284715    -3617.31089418
  entropy T*S    EENTRO =        -0.00000000
  eigenvalues    EBANDS =      -353.73371367
  atomic energy  EATOM  =      1573.89928564
  Solvation  Ecorr_sol  =         0.00000000
  ---------------------------------------------------
  free energy    TOTEN  =       -18.88628540 eV

  energy without entropy =      -18.88628540  energy(sigma->0) =      -18.88628540


--------------------------------------------------------------------------------------------------------




--------------------------------------- Iteration      1(  12)  ---------------------------------------


    POTLOK:  cpu time    0.7361: real time    0.7403
    SETDIJ:  cpu time    0.0117: real time    0.0117
    EDDIAG:  cpu time    0.1389: real time    0.1396
  RMM-DIIS:  cpu time    0.5720: real time    0.5746
    ORTHCH:  cpu time    0.0085: real time    0.0086
       DOS:  cpu time    0.0002: real time    0.0002
    CHARGE:  cpu time    0.0871: real time    0.0876
    MIXING:  cpu time    0.0242: real time    0.0244
    --------------------------------------------
      LOOP:  cpu time    1.5788: real time    1.5869

 eigenvalue-minimisations  :    93
 total energy-change (2. order) : 0.2333765E+00  (-0.5624580E-03)
 number of electron      23.9999998 magnetization       2.4958819
 augmentation part        0.9925122 magnetization       2.4743423

 DIPCOR: dipole corrections for dipol
 direction  3 min pos   269,
 dipolmoment           0.000000      0.000000      0.156893 electrons x Angstroem
 Tr[quadrupol]      -492.788022

 energy correction for charged system         0.000000 eV
 dipol+quadrupol energy correction           -0.001280 eV
 added-field ion interaction         -2.495713 eV  (added to PSCEN)


 Broyden mixing:
  rms(total) = 0.15301E+00    rms(broyden)= 0.15301E+00
  rms(prec ) = 0.15382E+00
  weight for this iteration     100.00

 eigenvalues of (default mixing * dielectric matrix)
  average eigenvalue GAMMA=   0.8715
  2.1838  0.8023  0.9546  0.9546  0.6212  0.5210  0.0630

 Free energy of the ion-electron system (eV)
  ---------------------------------------------------
  alpha Z        PSCENC =        -1.19155437
  Ewald energy   TEWEN  =      1702.98029128
  -Hartree energ DENC   =     -3037.68406193
  -exchange      EXHF   =         0.00000000
  -V(xc)+E(xc)   XCENC  =        99.13518224
  PAW double counting   =      3611.25359329    -3613.59598200
  entropy T*S    EENTRO =        -0.00000000
  eigenvalues    EBANDS =      -353.44966301
  atomic energy  EATOM  =      1573.89928564
  Solvation  Ecorr_sol  =         0.00000000
  ---------------------------------------------------
  free energy    TOTEN  =       -18.65290885 eV

  energy without entropy =      -18.65290885  energy(sigma->0) =      -18.65290885


--------------------------------------------------------------------------------------------------------




--------------------------------------- Iteration      1(  13)  ---------------------------------------


    POTLOK:  cpu time    0.7302: real time    0.7351
    SETDIJ:  cpu time    0.0127: real time    0.0127
    EDDIAG:  cpu time    0.1380: real time    0.1386
  RMM-DIIS:  cpu time    0.6609: real time    0.6642
    ORTHCH:  cpu time    0.0097: real time    0.0097
       DOS:  cpu time    0.0002: real time    0.0002
    CHARGE:  cpu time    0.0909: real time    0.0914
    MIXING:  cpu time    0.0301: real time    0.0303
    --------------------------------------------
      LOOP:  cpu time    1.6727: real time    1.6822

 eigenvalue-minimisations  :   109
 total energy-change (2. order) : 0.5484451E-02  (-0.1303958E-03)
 number of electron      23.9999998 magnetization       2.4801146
 augmentation part        0.9914338 magnetization       2.4594746

 DIPCOR: dipole corrections for dipol
 direction  3 min pos   269,
 dipolmoment           0.000000      0.000000      0.157707 electrons x Angstroem
 Tr[quadrupol]      -492.780367

 energy correction for charged system         0.000000 eV
 dipol+quadrupol energy correction           -0.001293 eV
 added-field ion interaction         -2.508671 eV  (added to PSCEN)


 Broyden mixing:
  rms(total) = 0.15197E+00    rms(broyden)= 0.15196E+00
  rms(prec ) = 0.15280E+00
  weight for this iteration     100.00

 eigenvalues of (default mixing * dielectric matrix)
  average eigenvalue GAMMA=   1.0687
  1.7668  2.1465  0.8147  0.8147  1.0344  0.8626  0.6225  0.4875

 Free energy of the ion-electron system (eV)
  ---------------------------------------------------
  alpha Z        PSCENC =        -1.20452638
  Ewald energy   TEWEN  =      1702.98029128
  -Hartree energ DENC   =     -3037.75569544
  -exchange      EXHF   =         0.00000000
  -V(xc)+E(xc)   XCENC  =        99.14070732
  PAW double counting   =      3606.86539264    -3609.20850493
  entropy T*S    EENTRO =         0.00000000
  eigenvalues    EBANDS =      -353.36437453
  atomic energy  EATOM  =      1573.89928564
  Solvation  Ecorr_sol  =         0.00000000
  ---------------------------------------------------
  free energy    TOTEN  =       -18.64742440 eV

  energy without entropy =      -18.64742440  energy(sigma->0) =      -18.64742440


--------------------------------------------------------------------------------------------------------




--------------------------------------- Iteration      1(  14)  ---------------------------------------


    POTLOK:  cpu time    1.1283: real time    1.1350
    SETDIJ:  cpu time    0.0115: real time    0.0115
    EDDIAG:  cpu time    0.1393: real time    0.1399
  RMM-DIIS:  cpu time    0.5411: real time    0.5436
    ORTHCH:  cpu time    0.0088: real time    0.0089
       DOS:  cpu time    0.0002: real time    0.0002
    CHARGE:  cpu time    0.0881: real time    0.0885
    MIXING:  cpu time    0.0260: real time    0.0262
    --------------------------------------------
      LOOP:  cpu time    1.9432: real time    1.9538

 eigenvalue-minimisations  :    89
 total energy-change (2. order) : 0.6096152E-01  (-0.2660754E-02)
 number of electron      23.9999998 magnetization       2.3005989
 augmentation part        0.9948631 magnetization       2.2835870

 DIPCOR: dipole corrections for dipol
 direction  3 min pos   269,
 dipolmoment           0.000000      0.000000      0.160331 electrons x Angstroem
 Tr[quadrupol]      -492.764688

 energy correction for charged system         0.000000 eV
 dipol+quadrupol energy correction           -0.001337 eV
 added-field ion interaction         -2.550410 eV  (added to PSCEN)


 Broyden mixing:
  rms(total) = 0.13061E+00    rms(broyden)= 0.12929E+00
  rms(prec ) = 0.13036E+00
  weight for this iteration     100.00

 eigenvalues of (default mixing * dielectric matrix)
  average eigenvalue GAMMA=   1.0352
  1.7341  2.2178  1.3599  0.9736  0.6613  0.6613  0.6267  0.6267  0.4559

 Free energy of the ion-electron system (eV)
  ---------------------------------------------------
  alpha Z        PSCENC =        -1.24630871
  Ewald energy   TEWEN  =      1702.98029128
  -Hartree energ DENC   =     -3037.87731626
  -exchange      EXHF   =         0.00000000
  -V(xc)+E(xc)   XCENC  =        99.18590471
  PAW double counting   =      3568.88045280    -3571.22194136
  entropy T*S    EENTRO =        -0.00000000
  eigenvalues    EBANDS =      -353.18683098
  atomic energy  EATOM  =      1573.89928564
  Solvation  Ecorr_sol  =         0.00000000
  ---------------------------------------------------
  free energy    TOTEN  =       -18.58646288 eV

  energy without entropy =      -18.58646288  energy(sigma->0) =      -18.58646288


--------------------------------------------------------------------------------------------------------




--------------------------------------- Iteration      1(  15)  ---------------------------------------


    POTLOK:  cpu time    0.7268: real time    0.7315
    SETDIJ:  cpu time    0.0138: real time    0.0139
    EDDIAG:  cpu time    0.1371: real time    0.1377
  RMM-DIIS:  cpu time    0.5372: real time    0.5397
    ORTHCH:  cpu time    0.0085: real time    0.0085
       DOS:  cpu time    0.0002: real time    0.0002
    CHARGE:  cpu time    0.0905: real time    0.0910
    MIXING:  cpu time    0.0262: real time    0.0264
    --------------------------------------------
      LOOP:  cpu time    1.5403: real time    1.5489

 eigenvalue-minimisations  :    86
 total energy-change (2. order) :-0.3482685E+00  (-0.2643156E-02)
 number of electron      23.9999998 magnetization       2.2476334
 augmentation part        0.9689685 magnetization       2.2304813

 DIPCOR: dipole corrections for dipol
 direction  3 min pos   269,
 dipolmoment           0.000000      0.000000      0.168644 electrons x Angstroem
 Tr[quadrupol]      -492.676324

 energy correction for charged system         0.000000 eV
 dipol+quadrupol energy correction           -0.001479 eV
 added-field ion interaction         -2.682642 eV  (added to PSCEN)


 Broyden mixing:
  rms(total) = 0.31258E+00    rms(broyden)= 0.31175E+00
  rms(prec ) = 0.31517E+00
  weight for this iteration     100.00

 eigenvalues of (default mixing * dielectric matrix)
  average eigenvalue GAMMA=   0.9256
  1.7056  2.2230  1.3686  0.9713  0.6127  0.6127  0.6278  0.6278  0.4510  0.0558

 Free energy of the ion-electron system (eV)
  ---------------------------------------------------
  alpha Z        PSCENC =        -1.37868235
  Ewald energy   TEWEN  =      1702.98029128
  -Hartree energ DENC   =     -3037.81470492
  -exchange      EXHF   =         0.00000000
  -V(xc)+E(xc)   XCENC  =        98.91467392
  PAW double counting   =      3581.84576155    -3584.18004943
  entropy T*S    EENTRO =        -0.00000000
  eigenvalues    EBANDS =      -353.20130709
  atomic energy  EATOM  =      1573.89928564
  Solvation  Ecorr_sol  =         0.00000000
  ---------------------------------------------------
  free energy    TOTEN  =       -18.93473138 eV

  energy without entropy =      -18.93473138  energy(sigma->0) =      -18.93473138


--------------------------------------------------------------------------------------------------------




--------------------------------------- Iteration      1(  16)  ---------------------------------------


    POTLOK:  cpu time    0.7348: real time    0.7392
    SETDIJ:  cpu time    0.0127: real time    0.0127
    EDDIAG:  cpu time    0.1362: real time    0.1368
  RMM-DIIS:  cpu time    0.5403: real time    0.5428
    ORTHCH:  cpu time    0.0086: real time    0.0086
       DOS:  cpu time    0.0002: real time    0.0001
    CHARGE:  cpu time    0.0913: real time    0.0917
    MIXING:  cpu time    0.0284: real time    0.0286
    --------------------------------------------
      LOOP:  cpu time    1.5524: real time    1.5606

 eigenvalue-minimisations  :    81
 total energy-change (2. order) : 0.2229367E-02  (-0.1726007E-02)
 number of electron      23.9999998 magnetization       2.0813336
 augmentation part        0.9456971 magnetization       2.0663580

 DIPCOR: dipole corrections for dipol
 direction  3 min pos   269,
 dipolmoment           0.000000      0.000000      0.171307 electrons x Angstroem
 Tr[quadrupol]      -492.659283

 energy correction for charged system         0.000000 eV
 dipol+quadrupol energy correction           -0.001526 eV
 added-field ion interaction         -2.725009 eV  (added to PSCEN)


 Broyden mixing:
  rms(total) = 0.52918E+00    rms(broyden)= 0.52899E+00
  rms(prec ) = 0.53543E+00
  weight for this iteration     100.00

 eigenvalues of (default mixing * dielectric matrix)
  average eigenvalue GAMMA=   0.8906
  2.2394  1.2543  1.3405  0.6004  0.6004  0.9797  0.6342  0.6342  0.5314  0.5314
  0.4505

 Free energy of the ion-electron system (eV)
  ---------------------------------------------------
  alpha Z        PSCENC =        -1.42109714
  Ewald energy   TEWEN  =      1702.98029128
  -Hartree energ DENC   =     -3037.84752944
  -exchange      EXHF   =         0.00000000
  -V(xc)+E(xc)   XCENC  =        98.95003416
  PAW double counting   =      3539.13231033    -3541.46535796
  entropy T*S    EENTRO =        -0.00000000
  eigenvalues    EBANDS =      -353.16043888
  atomic energy  EATOM  =      1573.89928564
  Solvation  Ecorr_sol  =         0.00000000
  ---------------------------------------------------
  free energy    TOTEN  =       -18.93250202 eV

  energy without entropy =      -18.93250202  energy(sigma->0) =      -18.93250202


--------------------------------------------------------------------------------------------------------




--------------------------------------- Iteration      1(  17)  ---------------------------------------


    POTLOK:  cpu time    0.7301: real time    0.7353
    SETDIJ:  cpu time    0.0116: real time    0.0116
    EDDIAG:  cpu time    0.1367: real time    0.1375
  RMM-DIIS:  cpu time    0.5510: real time    0.5536
    ORTHCH:  cpu time    0.0086: real time    0.0086
       DOS:  cpu time    0.0002: real time    0.0002
    CHARGE:  cpu time    0.0883: real time    0.0888
    MIXING:  cpu time    0.0267: real time    0.0269
    --------------------------------------------
      LOOP:  cpu time    1.5532: real time    1.5625

 eigenvalue-minimisations  :    88
 total energy-change (2. order) :-0.9781315E-01  (-0.1453741E-01)
 number of electron      23.9999998 magnetization       1.4620567
 augmentation part        1.0086142 magnetization       1.4410456

 DIPCOR: dipole corrections for dipol
 direction  3 min pos   269,
 dipolmoment           0.000000      0.000000      0.165739 electrons x Angstroem
 Tr[quadrupol]      -492.677136

 energy correction for charged system         0.000000 eV
 dipol+quadrupol energy correction           -0.001428 eV
 added-field ion interaction         -2.636435 eV  (added to PSCEN)


 Broyden mixing:
  rms(total) = 0.12545E+00    rms(broyden)= 0.11918E+00
  rms(prec ) = 0.11968E+00
  weight for this iteration     100.00

 eigenvalues of (default mixing * dielectric matrix)
  average eigenvalue GAMMA=   1.0527
  2.7587  2.2157  1.1601  1.1601  0.6677  1.0021  1.0021  0.6374  0.5389  0.5389
  0.4755  0.4755

 Free energy of the ion-electron system (eV)
  ---------------------------------------------------
  alpha Z        PSCENC =        -1.33242477
  Ewald energy   TEWEN  =      1702.98029128
  -Hartree energ DENC   =     -3036.28131810
  -exchange      EXHF   =         0.00000000
  -V(xc)+E(xc)   XCENC  =        98.74848659
  PAW double counting   =      3664.10288663    -3666.42457005
  entropy T*S    EENTRO =         0.00000000
  eigenvalues    EBANDS =      -354.72295240
  atomic energy  EATOM  =      1573.89928564
  Solvation  Ecorr_sol  =         0.00000000
  ---------------------------------------------------
  free energy    TOTEN  =       -19.03031517 eV

  energy without entropy =      -19.03031517  energy(sigma->0) =      -19.03031517


--------------------------------------------------------------------------------------------------------




--------------------------------------- Iteration      1(  18)  ---------------------------------------


    POTLOK:  cpu time    0.7318: real time    0.7363
    SETDIJ:  cpu time    0.0137: real time    0.0137
    EDDIAG:  cpu time    0.1388: real time    0.1394
  RMM-DIIS:  cpu time    0.5170: real time    0.5196
    ORTHCH:  cpu time    0.0083: real time    0.0084
       DOS:  cpu time    0.0002: real time    0.0002
    CHARGE:  cpu time    0.0886: real time    0.0891
    MIXING:  cpu time    0.0279: real time    0.0280
    --------------------------------------------
      LOOP:  cpu time    1.5262: real time    1.5346

 eigenvalue-minimisations  :    86
 total energy-change (2. order) :-0.8963306E+00  (-0.2801968E-01)
 number of electron      23.9999998 magnetization       1.1332485
 augmentation part        1.0274728 magnetization       1.1107904

 DIPCOR: dipole corrections for dipol
 direction  3 min pos   269,
 dipolmoment           0.000000      0.000000      0.173684 electrons x Angstroem
 Tr[quadrupol]      -492.561029

 energy correction for charged system         0.000000 eV
 dipol+quadrupol energy correction           -0.001569 eV
 added-field ion interaction         -2.762821 eV  (added to PSCEN)


 Broyden mixing:
  rms(total) = 0.23805E+00    rms(broyden)= 0.23761E+00
  rms(prec ) = 0.24078E+00
  weight for this iteration     100.00

 eigenvalues of (default mixing * dielectric matrix)
  average eigenvalue GAMMA=   1.0805
  3.4806  2.1881  1.1837  1.1837  0.6291  0.9459  0.9459  0.5577  0.5577  0.6723
  0.6138  0.6138  0.4737

 Free energy of the ion-electron system (eV)
  ---------------------------------------------------
  alpha Z        PSCENC =        -1.45895178
  Ewald energy   TEWEN  =      1702.98029128
  -Hartree energ DENC   =     -3033.82769004
  -exchange      EXHF   =         0.00000000
  -V(xc)+E(xc)   XCENC  =        97.94679687
  PAW double counting   =      3758.88128900    -3761.17412160
  entropy T*S    EENTRO =        -0.00000000
  eigenvalues    EBANDS =      -357.17354508
  atomic energy  EATOM  =      1573.89928564
  Solvation  Ecorr_sol  =         0.00000000
  ---------------------------------------------------
  free energy    TOTEN  =       -19.92664572 eV

  energy without entropy =      -19.92664572  energy(sigma->0) =      -19.92664572


--------------------------------------------------------------------------------------------------------




--------------------------------------- Iteration      1(  19)  ---------------------------------------


    POTLOK:  cpu time    0.7312: real time    0.7351
    SETDIJ:  cpu time    0.0111: real time    0.0112
    EDDIAG:  cpu time    0.1375: real time    0.1382
  RMM-DIIS:  cpu time    0.5520: real time    0.5548
    ORTHCH:  cpu time    0.0082: real time    0.0082
       DOS:  cpu time    0.0002: real time    0.0002
    CHARGE:  cpu time    0.0896: real time    0.0903
    MIXING:  cpu time    0.0293: real time    0.0294
    --------------------------------------------
      LOOP:  cpu time    1.5591: real time    1.5673

 eigenvalue-minimisations  :    88
 total energy-change (2. order) :-0.7107073E-01  (-0.2861328E-01)
 number of electron      23.9999998 magnetization       0.8279303
 augmentation part        1.0154492 magnetization       0.8094347

 DIPCOR: dipole corrections for dipol
 direction  3 min pos   269,
 dipolmoment           0.000000      0.000000      0.179613 electrons x Angstroem
 Tr[quadrupol]      -492.473602

 energy correction for charged system         0.000000 eV
 dipol+quadrupol energy correction           -0.001678 eV
 added-field ion interaction         -2.857136 eV  (added to PSCEN)


 Broyden mixing:
  rms(total) = 0.28841E+00    rms(broyden)= 0.28807E+00
  rms(prec ) = 0.28954E+00
  weight for this iteration     100.00

 eigenvalues of (default mixing * dielectric matrix)
  average eigenvalue GAMMA=   1.1595
  4.2993  2.0604  1.1098  1.1098  0.6120  1.2243  1.2243  0.8808  0.8808  0.5786
  0.5786  0.6013  0.6013  0.4715

 Free energy of the ion-electron system (eV)
  ---------------------------------------------------
  alpha Z        PSCENC =        -1.55337527
  Ewald energy   TEWEN  =      1702.98029128
  -Hartree energ DENC   =     -3032.84741010
  -exchange      EXHF   =         0.00000000
  -V(xc)+E(xc)   XCENC  =        97.83277966
  PAW double counting   =      3779.29995834    -3781.55553813
  entropy T*S    EENTRO =        -0.00000000
  eigenvalues    EBANDS =      -358.05370786
  atomic energy  EATOM  =      1573.89928564
  Solvation  Ecorr_sol  =         0.00000000
  ---------------------------------------------------
  free energy    TOTEN  =       -19.99771644 eV

  energy without entropy =      -19.99771644  energy(sigma->0) =      -19.99771644


--------------------------------------------------------------------------------------------------------




--------------------------------------- Iteration      1(  20)  ---------------------------------------


    POTLOK:  cpu time    0.7356: real time    0.7402
    SETDIJ:  cpu time    0.0122: real time    0.0122
    EDDIAG:  cpu time    0.1373: real time    0.1379
  RMM-DIIS:  cpu time    0.5397: real time    0.5423
    ORTHCH:  cpu time    0.0082: real time    0.0083
       DOS:  cpu time    0.0002: real time    0.0002
    CHARGE:  cpu time    0.0886: real time    0.0892
    MIXING:  cpu time    0.0296: real time    0.0297
    --------------------------------------------
      LOOP:  cpu time    1.5513: real time    1.5600

 eigenvalue-minimisations  :    86
 total energy-change (2. order) : 0.1141572E+01  (-0.1014220E+00)
 number of electron      23.9999998 magnetization       0.8250922
 augmentation part        0.9778403 magnetization       0.8159096

 DIPCOR: dipole corrections for dipol
 direction  3 min pos   269,
 dipolmoment           0.000000      0.000000      0.181819 electrons x Angstroem
 Tr[quadrupol]      -492.428856

 energy correction for charged system         0.000000 eV
 dipol+quadrupol energy correction           -0.001719 eV
 added-field ion interaction         -2.892224 eV  (added to PSCEN)


 Broyden mixing:
  rms(total) = 0.70055E+00    rms(broyden)= 0.70027E+00
  rms(prec ) = 0.70073E+00
  weight for this iteration     100.00

 eigenvalues of (default mixing * dielectric matrix)
  average eigenvalue GAMMA=   1.0822
  4.2988  2.0603  1.1098  1.1098  0.6120  1.2239  1.2239  0.8807  0.8807  0.5787
  0.5787  0.6014  0.6014  0.4715  0.0019

 Free energy of the ion-electron system (eV)
  ---------------------------------------------------
  alpha Z        PSCENC =        -1.58850462
  Ewald energy   TEWEN  =      1702.98029128
  -Hartree energ DENC   =     -3031.63773775
  -exchange      EXHF   =         0.00000000
  -V(xc)+E(xc)   XCENC  =        98.18970218
  PAW double counting   =      3762.22434547    -3764.33884172
  entropy T*S    EENTRO =         0.00000000
  eigenvalues    EBANDS =      -358.58468485
  atomic energy  EATOM  =      1573.89928564
  Solvation  Ecorr_sol  =         0.00000000
  ---------------------------------------------------
  free energy    TOTEN  =       -18.85614436 eV

  energy without entropy =      -18.85614436  energy(sigma->0) =      -18.85614436


--------------------------------------------------------------------------------------------------------




--------------------------------------- Iteration      1(  21)  ---------------------------------------


    POTLOK:  cpu time    0.7350: real time    0.7391
    SETDIJ:  cpu time    0.0119: real time    0.0119
    EDDIAG:  cpu time    0.1387: real time    0.1396
  RMM-DIIS:  cpu time    0.6030: real time    0.6059
    ORTHCH:  cpu time    0.0082: real time    0.0083
       DOS:  cpu time    0.0002: real time    0.0002
    CHARGE:  cpu time    0.0923: real time    0.0927
    MIXING:  cpu time    0.0296: real time    0.0298
    --------------------------------------------
      LOOP:  cpu time    1.6189: real time    1.6274

 eigenvalue-minimisations  :    99
 total energy-change (2. order) : 0.4191837E-01  (-0.4978521E-02)
 number of electron      23.9999998 magnetization       0.7909965
 augmentation part        0.9787184 magnetization       0.7823592

 DIPCOR: dipole corrections for dipol
 direction  3 min pos   269,
 dipolmoment           0.000000      0.000000      0.181071 electrons x Angstroem
 Tr[quadrupol]      -492.430714

 energy correction for charged system         0.000000 eV
 dipol+quadrupol energy correction           -0.001705 eV
 added-field ion interaction         -2.880317 eV  (added to PSCEN)


 Broyden mixing:
  rms(total) = 0.72078E+00    rms(broyden)= 0.72077E+00
  rms(prec ) = 0.72119E+00
  weight for this iteration     100.00

 eigenvalues of (default mixing * dielectric matrix)
  average eigenvalue GAMMA=   1.0793
  4.5763  2.2998  1.1003  1.1003  0.6286  1.1646  1.1646  0.8760  0.8760  0.5730
  0.5730  0.5877  0.5877  0.4656  0.4006  0.2947

 Free energy of the ion-electron system (eV)
  ---------------------------------------------------
  alpha Z        PSCENC =        -1.57658341
  Ewald energy   TEWEN  =      1702.98029128
  -Hartree energ DENC   =     -3031.55414805
  -exchange      EXHF   =         0.00000000
  -V(xc)+E(xc)   XCENC  =        98.19544424
  PAW double counting   =      3765.03852734    -3767.14500868
  entropy T*S    EENTRO =         0.00000000
  eigenvalues    EBANDS =      -358.65203434
  atomic energy  EATOM  =      1573.89928564
  Solvation  Ecorr_sol  =         0.00000000
  ---------------------------------------------------
  free energy    TOTEN  =       -18.81422599 eV

  energy without entropy =      -18.81422599  energy(sigma->0) =      -18.81422599


--------------------------------------------------------------------------------------------------------




--------------------------------------- Iteration      1(  22)  ---------------------------------------


    POTLOK:  cpu time    0.7300: real time    0.7342
    SETDIJ:  cpu time    0.0121: real time    0.0121
    EDDIAG:  cpu time    0.1373: real time    0.1380
  RMM-DIIS:  cpu time    0.5866: real time    0.5894
    ORTHCH:  cpu time    0.0082: real time    0.0082
       DOS:  cpu time    0.0002: real time    0.0002
    CHARGE:  cpu time    0.2778: real time    0.2790
    MIXING:  cpu time    0.0304: real time    0.0305
    --------------------------------------------
      LOOP:  cpu time    1.7826: real time    1.7916

 eigenvalue-minimisations  :    95
 total energy-change (2. order) :-0.3453381E+00  (-0.1050004E-02)
 number of electron      23.9999998 magnetization       0.7828020
 augmentation part        0.9841970 magnetization       0.7738308

 DIPCOR: dipole corrections for dipol
 direction  3 min pos   269,
 dipolmoment           0.000000      0.000000      0.182200 electrons x Angstroem
 Tr[quadrupol]      -492.416710

 energy correction for charged system         0.000000 eV
 dipol+quadrupol energy correction           -0.001726 eV
 added-field ion interaction         -2.898284 eV  (added to PSCEN)


 Broyden mixing:
  rms(total) = 0.66558E+00    rms(broyden)= 0.66558E+00
  rms(prec ) = 0.66589E+00
  weight for this iteration     100.00

 eigenvalues of (default mixing * dielectric matrix)
  average eigenvalue GAMMA=   1.1075
  4.9122  2.4287  1.1053  1.1072  1.1072  0.5868  1.1523  1.1523  0.8537  0.8537
  0.5752  0.5752  0.5993  0.5993  0.4675  0.3760  0.3760

 Free energy of the ion-electron system (eV)
  ---------------------------------------------------
  alpha Z        PSCENC =        -1.59457150
  Ewald energy   TEWEN  =      1702.98029128
  -Hartree energ DENC   =     -3031.43652059
  -exchange      EXHF   =         0.00000000
  -V(xc)+E(xc)   XCENC  =        97.98838599
  PAW double counting   =      3737.18159073    -3739.30640128
  entropy T*S    EENTRO =         0.00000000
  eigenvalues    EBANDS =      -358.87162434
  atomic energy  EATOM  =      1573.89928564
  Solvation  Ecorr_sol  =         0.00000000
  ---------------------------------------------------
  free energy    TOTEN  =       -19.15956407 eV

  energy without entropy =      -19.15956407  energy(sigma->0) =      -19.15956407


--------------------------------------------------------------------------------------------------------




--------------------------------------- Iteration      1(  23)  ---------------------------------------


    POTLOK:  cpu time    0.7314: real time    0.7361
    SETDIJ:  cpu time    0.0125: real time    0.0125
    EDDIAG:  cpu time    0.1389: real time    0.1396
  RMM-DIIS:  cpu time    0.5494: real time    0.5522
    ORTHCH:  cpu time    0.0084: real time    0.0085
       DOS:  cpu time    0.0001: real time    0.0001
    CHARGE:  cpu time    0.0882: real time    0.0886
    MIXING:  cpu time    0.0314: real time    0.0316
    --------------------------------------------
      LOOP:  cpu time    1.5604: real time    1.5692

 eigenvalue-minimisations  :    88
 total energy-change (2. order) :-0.7365640E+00  (-0.1634862E-01)
 number of electron      23.9999998 magnetization       0.7801633
 augmentation part        0.9847144 magnetization       0.7754937

 DIPCOR: dipole corrections for dipol
 direction  3 min pos   269,
 dipolmoment           0.000000      0.000000      0.186968 electrons x Angstroem
 Tr[quadrupol]      -492.384753

 energy correction for charged system         0.000000 eV
 dipol+quadrupol energy correction           -0.001818 eV
 added-field ion interaction         -2.974127 eV  (added to PSCEN)


 Broyden mixing:
  rms(total) = 0.48463E+00    rms(broyden)= 0.48462E+00
  rms(prec ) = 0.48528E+00
  weight for this iteration     100.00

 eigenvalues of (default mixing * dielectric matrix)
  average eigenvalue GAMMA=   1.0471
  4.9097  2.4280  1.1181  1.1075  1.1075  0.5871  1.1517  1.1517  0.8534  0.8534
  0.5757  0.5757  0.5993  0.5993  0.4674  0.3747  0.3747  0.0137

 Free energy of the ion-electron system (eV)
  ---------------------------------------------------
  alpha Z        PSCENC =        -1.67050626
  Ewald energy   TEWEN  =      1702.98029128
  -Hartree energ DENC   =     -3031.91957987
  -exchange      EXHF   =         0.00000000
  -V(xc)+E(xc)   XCENC  =        97.63639847
  PAW double counting   =      3661.59712576    -3663.77307069
  entropy T*S    EENTRO =        -0.00000000
  eigenvalues    EBANDS =      -358.64607245
  atomic energy  EATOM  =      1573.89928564
  Solvation  Ecorr_sol  =         0.00000000
  ---------------------------------------------------
  free energy    TOTEN  =       -19.89612812 eV

  energy without entropy =      -19.89612812  energy(sigma->0) =      -19.89612812


--------------------------------------------------------------------------------------------------------




--------------------------------------- Iteration      1(  24)  ---------------------------------------


    POTLOK:  cpu time    0.7294: real time    0.7337
    SETDIJ:  cpu time    0.0117: real time    0.0118
    EDDIAG:  cpu time    0.1363: real time    0.1370
  RMM-DIIS:  cpu time    0.6197: real time    0.6227
    ORTHCH:  cpu time    0.0080: real time    0.0081
       DOS:  cpu time    0.0002: real time    0.0002
    CHARGE:  cpu time    0.0898: real time    0.0903
    MIXING:  cpu time    0.0374: real time    0.0376
    --------------------------------------------
      LOOP:  cpu time    1.6325: real time    1.6412

 eigenvalue-minimisations  :   101
 total energy-change (2. order) : 0.9230775E-01  (-0.2610937E-03)
 number of electron      23.9999998 magnetization       0.7441396
 augmentation part        0.9854144 magnetization       0.7391140

 DIPCOR: dipole corrections for dipol
 direction  3 min pos   269,
 dipolmoment           0.000000      0.000000      0.186450 electrons x Angstroem
 Tr[quadrupol]      -492.387859

 energy correction for charged system         0.000000 eV
 dipol+quadrupol energy correction           -0.001808 eV
 added-field ion interaction         -2.965888 eV  (added to PSCEN)


 Broyden mixing:
  rms(total) = 0.50532E+00    rms(broyden)= 0.50532E+00
  rms(prec ) = 0.50590E+00
  weight for this iteration     100.00

 eigenvalues of (default mixing * dielectric matrix)
  average eigenvalue GAMMA=   1.0706
  5.3468  2.4479  1.1165  1.1165  0.8823  0.6173  0.6173  1.1506  1.1506  0.7853
  0.7853  0.6359  0.6359  0.6106  0.6106  0.4907  0.4907  0.4669  0.3835

 Free energy of the ion-electron system (eV)
  ---------------------------------------------------
  alpha Z        PSCENC =        -1.66225716
  Ewald energy   TEWEN  =      1702.98029128
  -Hartree energ DENC   =     -3031.81875087
  -exchange      EXHF   =         0.00000000
  -V(xc)+E(xc)   XCENC  =        97.68801713
  PAW double counting   =      3668.46769789    -3670.63773837
  entropy T*S    EENTRO =         0.00000000
  eigenvalues    EBANDS =      -358.72036591
  atomic energy  EATOM  =      1573.89928564
  Solvation  Ecorr_sol  =         0.00000000
  ---------------------------------------------------
  free energy    TOTEN  =       -19.80382037 eV

  energy without entropy =      -19.80382037  energy(sigma->0) =      -19.80382037


--------------------------------------------------------------------------------------------------------




--------------------------------------- Iteration      1(  25)  ---------------------------------------


    POTLOK:  cpu time    0.7294: real time    0.7344
    SETDIJ:  cpu time    0.0123: real time    0.0123
    EDDIAG:  cpu time    0.1364: real time    0.1370
  RMM-DIIS:  cpu time    0.5264: real time    0.5289
    ORTHCH:  cpu time    0.0081: real time    0.0081
       DOS:  cpu time    0.0001: real time    0.0001
    CHARGE:  cpu time    0.0888: real time    0.0893
    MIXING:  cpu time    0.0330: real time    0.0332
    --------------------------------------------
      LOOP:  cpu time    1.5346: real time    1.5434

 eigenvalue-minimisations  :    85
 total energy-change (2. order) : 0.7618223E+00  (-0.1643525E-01)
 number of electron      23.9999998 magnetization       0.7292532
 augmentation part        0.9850943 magnetization       0.7220578

 DIPCOR: dipole corrections for dipol
 direction  3 min pos   269,
 dipolmoment           0.000000      0.000000      0.182561 electrons x Angstroem
 Tr[quadrupol]      -492.414803

 energy correction for charged system         0.000000 eV
 dipol+quadrupol energy correction           -0.001733 eV
 added-field ion interaction         -2.904022 eV  (added to PSCEN)


 Broyden mixing:
[...]
 augmentation part        0.9978920 magnetization       0.0004568

 DIPCOR: dipole corrections for dipol
 direction  3 min pos   269,
 dipolmoment           0.000000      0.000000      0.192302 electrons x Angstroem
 Tr[quadrupol]      -492.373591

 energy correction for charged system         0.000000 eV
 dipol+quadrupol energy correction           -0.001923 eV
 added-field ion interaction         -3.058973 eV  (added to PSCEN)


 Broyden mixing:
  rms(total) = 0.52509E-02    rms(broyden)= 0.52365E-02
  rms(prec ) = 0.52387E-02
  weight for this iteration     100.00

 eigenvalues of (default mixing * dielectric matrix)
  average eigenvalue GAMMA=   1.4364
 12.3266  3.4313  4.0515  2.3148  2.3148  2.4001  2.4001  2.2925  2.2925  1.0951
  1.0951  0.2993  1.3455  1.3455  1.3655  1.3655  0.3803  0.3803  0.9571  0.9571
  1.0097  1.0097  0.9867  0.2701  0.5100  0.5100  0.3741  0.6920  0.6920  0.7225
  0.7225  0.4351  0.6058  0.6058  0.7062  0.7062  0.5681  0.5951  0.6518  0.6726

 Free energy of the ion-electron system (eV)
  ---------------------------------------------------
  alpha Z        PSCENC =        -1.75545759
  Ewald energy   TEWEN  =      1702.98029128
  -Hartree energ DENC   =     -3032.08637712
  -exchange      EXHF   =         0.00000000
  -V(xc)+E(xc)   XCENC  =        97.03493502
  PAW double counting   =      3671.99229545    -3674.28211371
  entropy T*S    EENTRO =        -0.00000000
  eigenvalues    EBANDS =      -358.62684534
  atomic energy  EATOM  =      1573.89928564
  Solvation  Ecorr_sol  =         0.00000000
  ---------------------------------------------------
  free energy    TOTEN  =       -20.84398637 eV

  energy without entropy =      -20.84398637  energy(sigma->0) =      -20.84398637


--------------------------------------------------------------------------------------------------------




--------------------------------------- Iteration      1(  66)  ---------------------------------------


    POTLOK:  cpu time    0.9352: real time    0.9409
    SETDIJ:  cpu time    0.0113: real time    0.0114
    EDDIAG:  cpu time    0.1387: real time    0.1393
  RMM-DIIS:  cpu time    0.5122: real time    0.5147
    ORTHCH:  cpu time    0.0076: real time    0.0076
       DOS:  cpu time    0.0002: real time    0.0002
    CHARGE:  cpu time    0.0876: real time    0.0880
    MIXING:  cpu time    0.0704: real time    0.0707
    --------------------------------------------
      LOOP:  cpu time    1.7632: real time    1.7728

 eigenvalue-minimisations  :    84
 total energy-change (2. order) :-0.7742566E-04  (-0.4798957E-05)
 number of electron      23.9999998 magnetization       0.0001455
 augmentation part        0.9977205 magnetization       0.0000683

 DIPCOR: dipole corrections for dipol
 direction  3 min pos   269,
 dipolmoment           0.000000      0.000000      0.192221 electrons x Angstroem
 Tr[quadrupol]      -492.373505

 energy correction for charged system         0.000000 eV
 dipol+quadrupol energy correction           -0.001921 eV
 added-field ion interaction         -3.057688 eV  (added to PSCEN)


 Broyden mixing:
  rms(total) = 0.39172E-02    rms(broyden)= 0.39088E-02
  rms(prec ) = 0.39182E-02
  weight for this iteration     100.00

 eigenvalues of (default mixing * dielectric matrix)
  average eigenvalue GAMMA=   1.4232
 12.5086  3.8964  3.8763  1.8922  1.8922  2.4841  2.4841  1.7905  1.7905  1.9451
  1.1327  1.1327  1.6807  1.6807  0.2933  1.2927  1.2927  0.4457  0.4457  0.9849
  0.9849  0.9756  0.7109  0.7109  0.3626  0.3626  0.7227  0.7227  0.8239  0.4268
  0.4268  0.4142  0.6121  0.6121  0.7070  0.7070  0.5969  0.5969  0.6989  0.6380
  0.5948

 Free energy of the ion-electron system (eV)
  ---------------------------------------------------
  alpha Z        PSCENC =        -1.75417133
  Ewald energy   TEWEN  =      1702.98029128
  -Hartree energ DENC   =     -3032.07977917
  -exchange      EXHF   =         0.00000000
  -V(xc)+E(xc)   XCENC  =        97.03520192
  PAW double counting   =      3672.83696253    -3675.12654979
  entropy T*S    EENTRO =        -0.00000000
  eigenvalues    EBANDS =      -358.63530488
  atomic energy  EATOM  =      1573.89928564
  Solvation  Ecorr_sol  =         0.00000000
  ---------------------------------------------------
  free energy    TOTEN  =       -20.84406380 eV

  energy without entropy =      -20.84406380  energy(sigma->0) =      -20.84406380


--------------------------------------------------------------------------------------------------------




--------------------------------------- Iteration      1(  67)  ---------------------------------------


    POTLOK:  cpu time    0.7357: real time    0.7402
    SETDIJ:  cpu time    0.0126: real time    0.0127
    EDDIAG:  cpu time    0.1383: real time    0.1389
  RMM-DIIS:  cpu time    0.5324: real time    0.5350
    ORTHCH:  cpu time    0.0078: real time    0.0079
       DOS:  cpu time    0.0001: real time    0.0001
    CHARGE:  cpu time    0.0893: real time    0.0900
    MIXING:  cpu time    0.0762: real time    0.0765
    --------------------------------------------
      LOOP:  cpu time    1.5925: real time    1.6014

 eigenvalue-minimisations  :    91
 total energy-change (2. order) :-0.3474374E-04  (-0.7934507E-05)
 number of electron      23.9999998 magnetization      -0.0001136
 augmentation part        0.9977555 magnetization      -0.0001711

 DIPCOR: dipole corrections for dipol
 direction  3 min pos   269,
 dipolmoment           0.000000      0.000000      0.192060 electrons x Angstroem
 Tr[quadrupol]      -492.373837

 energy correction for charged system         0.000000 eV
 dipol+quadrupol energy correction           -0.001918 eV
 added-field ion interaction         -3.055123 eV  (added to PSCEN)


 Broyden mixing:
  rms(total) = 0.97304E-03    rms(broyden)= 0.94823E-03
  rms(prec ) = 0.95545E-03
  weight for this iteration     100.00

 eigenvalues of (default mixing * dielectric matrix)
  average eigenvalue GAMMA=   1.4387
 12.6642  4.0029  3.8756  2.5680  2.9121  2.9121  1.5234  2.1786  1.8545  1.8545
  1.0782  1.0782  1.5473  1.5473  0.3177  1.2763  1.2763  0.4657  0.4657  0.9674
  0.9674  0.7733  0.7733  0.9911  0.3078  0.4304  0.4304  0.4083  0.4083  0.6014
  0.6014  0.6771  0.6771  0.7855  0.7855  0.6785  0.6785  0.5465  0.6420  0.6420
  0.6622  0.5917

 Free energy of the ion-electron system (eV)
  ---------------------------------------------------
  alpha Z        PSCENC =        -1.75160310
  Ewald energy   TEWEN  =      1702.98029128
  -Hartree energ DENC   =     -3032.05990546
  -exchange      EXHF   =         0.00000000
  -V(xc)+E(xc)   XCENC  =        97.03528878
  PAW double counting   =      3674.16581454    -3676.45492769
  entropy T*S    EENTRO =        -0.00000000
  eigenvalues    EBANDS =      -358.65834254
  atomic energy  EATOM  =      1573.89928564
  Solvation  Ecorr_sol  =         0.00000000
  ---------------------------------------------------
  free energy    TOTEN  =       -20.84409854 eV

  energy without entropy =      -20.84409854  energy(sigma->0) =      -20.84409854


--------------------------------------------------------------------------------------------------------




--------------------------------------- Iteration      1(  68)  ---------------------------------------


    POTLOK:  cpu time    0.7327: real time    0.7366
    SETDIJ:  cpu time    0.0109: real time    0.0110
    EDDIAG:  cpu time    0.1343: real time    0.1349
  RMM-DIIS:  cpu time    0.4148: real time    0.4170
    ORTHCH:  cpu time    0.0086: real time    0.0087
       DOS:  cpu time    0.0002: real time    0.0002
    --------------------------------------------
      LOOP:  cpu time    1.3016: real time    1.3084

 eigenvalue-minimisations  :    67
 total energy-change (2. order) :-0.8524924E-05  (-0.1769602E-05)
 number of electron      23.9999998 magnetization      -0.0001136
 augmentation part        0.9977555 magnetization      -0.0001711

 DIPCOR: dipole corrections for dipol
 direction  3 min pos   269,
 dipolmoment           0.000000      0.000000      0.191976 electrons x Angstroem
 Tr[quadrupol]      -492.373681

 energy correction for charged system         0.000000 eV
 dipol+quadrupol energy correction           -0.001917 eV
 added-field ion interaction         -3.053795 eV  (added to PSCEN)


 Free energy of the ion-electron system (eV)
  ---------------------------------------------------
  alpha Z        PSCENC =        -1.75027300
  Ewald energy   TEWEN  =      1702.98029128
  -Hartree energ DENC   =     -3032.05246718
  -exchange      EXHF   =         0.00000000
  -V(xc)+E(xc)   XCENC  =        97.03530084
  PAW double counting   =      3674.78156976    -3677.07050060
  entropy T*S    EENTRO =        -0.00000000
  eigenvalues    EBANDS =      -358.66731381
  atomic energy  EATOM  =      1573.89928564
  Solvation  Ecorr_sol  =         0.00000000
  ---------------------------------------------------
  free energy    TOTEN  =       -20.84410707 eV

  energy without entropy =      -20.84410707  energy(sigma->0) =      -20.84410707


--------------------------------------------------------------------------------------------------------




 average (electrostatic) potential at core
  the test charge radii are     0.9698  0.7215
  (the norm of the test charge is              1.0000)
       1-101.5573       2 -81.9776       3 -81.9781       4 -82.2720
 
 
 
 E-fermi :  -7.6402     XC(G=0):  -0.5923     alpha+bet : -0.3741


 spin component 1

 k-point     1 :       0.0000    0.0000    0.0000
  band No.  band energies     occupation 
      1     -29.3753      1.00000
      2     -26.1731      1.00000
      3     -25.5305      1.00000
      4     -16.1394      1.00000
      5     -12.7280      1.00000
      6     -12.6072      1.00000
      7     -12.4892      1.00000
      8      -9.7445      1.00000
      9      -9.6369      1.00000
     10      -8.7511      1.00000
     11      -8.4850      1.00000
     12      -7.6733      1.00000
     13      -7.0203      0.00000
     14      -0.4086      0.00000
     15      -0.2598      0.00000
     16       0.0307      0.00000
     17       0.1089      0.00000
     18       0.2892      0.00000
     19       0.5917      0.00000
     20       0.7527      0.00000

 spin component 2

 k-point     1 :       0.0000    0.0000    0.0000
  band No.  band energies     occupation 
      1     -29.3753      1.00000
      2     -26.1730      1.00000
      3     -25.5306      1.00000
      4     -16.1393      1.00000
      5     -12.7279      1.00000
      6     -12.6072      1.00000
      7     -12.4892      1.00000
      8      -9.7445      1.00000
      9      -9.6372      1.00000
     10      -8.7512      1.00000
     11      -8.4850      1.00000
     12      -7.6735      1.00000
     13      -7.0200      0.00000
     14      -0.4183      0.00000
     15      -0.2599      0.00000
     16       0.0290      0.00000
     17       0.1340      0.00000
     18       0.3020      0.00000
     19       0.6146      0.00000
     20       0.7739      0.00000


--------------------------------------------------------------------------------------------------------


 soft charge-density along one line, spin component           1
         0         1         2         3         4         5         6         7         8         9
 total charge-density along one line
 
 soft charge-density along one line, spin component           2
         0         1         2         3         4         5         6         7         8         9
 total charge-density along one line
 
 pseudopotential strength for first ion, spin component:           1
 44.230  50.803  -0.005   0.008   0.012  -0.007   0.011   0.016
 50.803  58.355  -0.006   0.009   0.014  -0.008   0.012   0.019
 -0.005  -0.006   8.978  -0.005  -0.001  12.158  -0.006  -0.001
  0.008   0.009  -0.005   8.981   0.007  -0.006  12.162   0.010
  0.012   0.014  -0.001   0.007   8.981  -0.001   0.010  12.161
 -0.007  -0.008  12.158  -0.006  -0.001  16.482  -0.008  -0.002
  0.011   0.012  -0.006  12.162   0.010  -0.008  16.487   0.013
  0.016   0.019  -0.001   0.010  12.161  -0.002   0.013  16.487
 pseudopotential strength for first ion, spin component:           2
 44.230  50.803  -0.008   0.008   0.011  -0.011   0.011   0.014
 50.803  58.355  -0.009   0.009   0.012  -0.012   0.012   0.016
 -0.008  -0.009   8.980  -0.004  -0.002  12.159  -0.005  -0.002
  0.008   0.009  -0.004   8.981   0.008  -0.005  12.162   0.010
  0.011   0.012  -0.002   0.008   8.980  -0.002   0.010  12.160
 -0.011  -0.012  12.159  -0.005  -0.002  16.484  -0.007  -0.003
  0.011   0.012  -0.005  12.162   0.010  -0.007  16.487   0.013
  0.014   0.016  -0.002   0.010  12.160  -0.003   0.013  16.484
 total augmentation occupancy for first ion, spin component:           1
 46.675 -37.882   1.464   9.053  -2.539  -0.723  -4.902   1.254
-37.882  31.927  -1.252  -7.583   2.172   0.582   3.961  -1.011
  1.464  -1.252   8.349  -1.570   0.246  -4.114   0.967  -0.155
  9.053  -7.583  -1.570   6.742   2.713   0.969  -3.091  -1.675
 -2.539   2.172   0.246   2.713   8.071  -0.155  -1.672  -3.938
 -0.723   0.582  -4.114   0.969  -0.155   2.204  -0.570   0.086
 -4.902   3.961   0.967  -3.091  -1.672  -0.570   1.624   0.986
  1.254  -1.011  -0.155  -1.675  -3.938   0.086   0.986   2.106
 total augmentation occupancy for first ion, spin component:           2
  0.003  -0.002   0.015   0.000   0.008  -0.009   0.000  -0.005
 -0.002   0.002  -0.011  -0.000  -0.006   0.007  -0.000   0.004
  0.015  -0.011   0.008  -0.000  -0.004  -0.006  -0.000   0.003
  0.000  -0.000  -0.000   0.000  -0.000  -0.001   0.000  -0.001
  0.008  -0.006  -0.004  -0.000  -0.008   0.003  -0.000   0.006
 -0.009   0.007  -0.006  -0.001   0.003   0.003   0.000  -0.002
  0.000  -0.000  -0.000   0.000  -0.000   0.000   0.000   0.000
 -0.005   0.004   0.003  -0.001   0.006  -0.002   0.000  -0.003


------------------------ aborting loop because EDIFF is reached ----------------------------------------


    CHARGE:  cpu time    0.0871: real time    0.0876
    FORLOC:  cpu time    0.0275: real time    0.0278
    FORNL :  cpu time    0.2161: real time    0.2172
    STRESS:  cpu time    0.6628: real time    0.6661
    FORCOR:  cpu time    0.8742: real time    0.8782
    FORHAR:  cpu time    0.0839: real time    0.0843
    MIXING:  cpu time    0.0788: real time    0.0791
    OFIELD:  cpu time    0.0002: real time    0.0002

  FORCE on cell =-STRESS in cart. coord.  units (eV):
  Direction    XX          YY          ZZ          XY          YZ          ZX
  --------------------------------------------------------------------------------------
  Alpha Z     1.30544     1.30544     1.30544
  Ewald    1674.71755  1760.61571 -1732.35302    74.79261  -147.23379   254.48864
  Hartree  2081.53879  2144.55910 -1194.04318    54.83151   -87.56567   151.34384
  E(xc)    -110.47027  -110.31237  -110.91212     0.13747    -0.25911     0.44782
  Local   -4123.07879 -4274.40511  2557.06777  -131.71353   234.04835  -404.52585
  n-local    -1.69355    -2.47663    -1.08734    -0.67914    -0.27986     0.48301
  augment     2.23480     2.64719     1.91180     0.35915    -0.46545     0.80425
  Kinetic   472.78077   475.06981   477.19842     1.98677     0.65712    -1.14758
  Fock        0.00000     0.00000     0.00000     0.00000     0.00000     0.00000
  -------------------------------------------------------------------------------------
  Total      -2.66525    -2.99686    -0.91222    -0.28515    -1.09842     1.89414
  in kB      -2.45439    -2.75976    -0.84005    -0.26259    -1.01151     1.74428
  external pressure =       -2.02 kB  Pullay stress =        0.00 kB


 VOLUME and BASIS-vectors are now :
 -----------------------------------------------------------------------------
  energy-cutoff  :      544.00
  volume of cell :     1739.83
      direct lattice vectors                 reciprocal lattice vectors
     8.315596000  0.000000000  0.000000000     0.120255962 -0.069429620  0.000000000
     4.157788000  7.201520000  0.000000000     0.000000000  0.138859574  0.000000000
     0.000000000  0.000000000 29.052834000     0.000000000  0.000000000  0.034420050

  length of vectors
     8.315596000  8.315593266 29.052834000     0.138859528  0.138859574  0.034420050


 FORCES acting on ions
    electron-ion (+dipol)            ewald-force                    non-local-force                 convergence-correction
 -----------------------------------------------------------------------------------------------
   -.999E+02 0.578E+02 0.208E+03   0.972E+02 -.562E+02 -.202E+03   -.278E+01 0.161E+01 -.253E+01   -.191E-02 0.101E-02 0.139E-02
   0.100E+02 -.286E+03 0.520E+02   -.148E+02 0.328E+03 -.528E+02   0.605E+01 -.448E+02 -.714E+00   -.579E-03 0.956E-03 0.177E-03
   0.253E+03 0.134E+03 0.521E+02   -.292E+03 -.151E+03 -.529E+02   0.418E+02 0.170E+02 -.704E+00   -.123E-02 0.415E-03 -.445E-04
   -.183E+03 0.106E+03 -.265E+03   0.210E+03 -.121E+03 0.307E+03   -.249E+02 0.144E+02 -.435E+02   -.556E-03 0.574E-04 0.876E-03
 -----------------------------------------------------------------------------------------------
   -.203E+02 0.117E+02 0.475E+02   0.000E+00 0.000E+00 0.000E+00   0.203E+02 -.117E+02 -.475E+02   -.427E-02 0.244E-02 0.240E-02
 
 
 POSITION                                       TOTAL-FORCE (eV/Angst)
 -----------------------------------------------------------------------------------
      6.06654      2.89511      8.93942        -5.459400      3.163271      3.862365
      5.89243      4.42715      8.92024         1.265521     -2.189317     -1.557828
      4.65137      2.28333      8.91988         2.527340     -0.008194     -1.557227
      6.79446      2.47367     10.12472         1.666538     -0.965760     -0.747310
 -----------------------------------------------------------------------------------
    total drift:                                0.001081      0.000849     -0.000776


--------------------------------------------------------------------------------------------------------



  FREE ENERGIE OF THE ION-ELECTRON SYSTEM (eV)
  ---------------------------------------------------
  free  energy   TOTEN  =       -20.84410707 eV

  energy  without entropy=      -20.84410707  energy(sigma->0) =      -20.84410707
 


--------------------------------------------------------------------------------------------------------


    POTLOK:  cpu time    0.7475: real time    0.7512


--------------------------------------------------------------------------------------------------------


 stress matrix after NEB project (eV)
     -2.66525     -0.28515      1.89414
     -0.28515     -2.99686     -1.09842
      1.89414     -1.09842     -0.91222
  FORCES: max atom, RMS     7.397918    4.376976
  FORCE total and by dimension    8.753951    5.459400
  Stress total and by dimension    5.164116    2.996858
     LOOP+:  cpu time  108.9164: real time  109.9795
    4ORBIT:  cpu time    0.0000: real time    0.0000

 total amount of memory used by VASP MPI-rank0   109993. kBytes
=======================================================================

   base      :      30000. kBytes
   nonlr-proj:        548. kBytes
   fftplans  :      22218. kBytes
   grid      :      55214. kBytes
   one-center:          6. kBytes
   wavefun   :       2007. kBytes
 
  
  
 General timing and accounting informations for this job:
 ========================================================
  
                  Total CPU time used (sec):      110.720
                            User time (sec):      108.279
                          System time (sec):        2.441
                         Elapsed time (sec):      112.367
  
                   Maximum memory used (kb):      254972.
                   Average memory used (kb):           0.
  
                          Minor page faults:       563489
                          Major page faults:           13
                 Voluntary context switches:         1656
