 argument  1 = 0e/mol.nwi
                                         
                                         


             Northwest Computational Chemistry Package (NWChem) 7.2.2
             --------------------------------------------------------


                    Environmental Molecular Sciences Laboratory
                       Pacific Northwest National Laboratory
                                Richland, WA 99352

                              Copyright (c) 1994-2022
                       Pacific Northwest National Laboratory
                            Battelle Memorial Institute

             NWChem is an open-source computational chemistry package
                        distributed under the terms of the
                      Educational Community License (ECL) 2.0
             A copy of the license is included with this distribution
                              in the LICENSE.TXT file

                                  ACKNOWLEDGMENT
                                  --------------

            This software and its documentation were developed at the
            EMSL at Pacific Northwest National Laboratory, a multiprogram
            national laboratory, operated for the U.S. Department of Energy
            by Battelle under Contract Number DE-AC05-76RL01830. Support
            for this work was provided by the Department of Energy Office
            of Biological and Environmental Research, Office of Basic
            Energy Sciences, and the Office of Advanced Scientific Computing.


           Job information
           ---------------

    hostname        = r227.ib.bridges2.psc.edu
    program         = nwchem
    date            = Tue Oct  1 15:07:58 2024

    compiled        = Mon_Mar_18_17:03:37_2024
    source          = /ocean/projects/pscstaff/mmadrid/nwchem-7.2.2
    nwchem branch   = 7.2.2
    nwchem revision = 74936fb9
    ga revision     = 5.8.0
    use scalapack   = F
    input           = 0e/mol.nwi
    prefix          = dft.
    data base       = .//dft.db
    status          = startup
    nproc           =       15
    time left       =     -1s



           Memory information
           ------------------

    heap     =   67108864 doubles =    512.0 Mbytes
    stack    =   67108861 doubles =    512.0 Mbytes
    global   =  134217728 doubles =   1024.0 Mbytes (distinct from heap & stack)
    total    =  268435453 doubles =   2048.0 Mbytes
    verify   = yes
    hardfail = no 


           Directory information
           ---------------------

  0 permanent = ./
  0 scratch   = /jet/home/hmt47/nwchem_scratch/




                                NWChem Input Module
                                -------------------


  library name resolved from: environment
  library file name is: </opt/packages/nwchem/nwchem7.2.2/share/nwchem/libraries/>
  


 Summary of "ao basis" -> "" (cartesian)
 ------------------------------------------------------------------------------
       Tag                 Description            Shells   Functions and Types
 ---------------- ------------------------------  ------  ---------------------
 *                        aug-cc-pVTZ                 on all atoms 


  pbe96 is a nonlocal functional; adding pw91lda local functional. 

 Scaling coordinates for geometry "geometry" by  1.889725989
 (inverse scale =  0.529177249)



                             Geometry "geometry" -> ""
                             -------------------------

 Output coordinates in angstroms (scale by  1.889725989 to convert to a.u.)

  No.       Tag          Charge          X              Y              Z
 ---- ---------------- ---------- -------------- -------------- --------------
    1 C                    6.0000    -0.00260774    -0.00530338    -0.03866014
    2 C                    6.0000    -0.03318808     0.03015617     1.52822347
    3 O                    8.0000     0.59087541     0.99421703    -0.53239744
    4 O                    8.0000    -0.54752501    -0.99681569    -0.57686474
    5 H                    1.0000     0.33815139     0.98345360     1.93868023
    6 F                    9.0000    -1.31399565    -0.17049732     2.04563152
    7 F                    9.0000     0.75775868    -0.98531541     2.07552610

      Atomic Mass 
      ----------- 

      C                 12.000000
      O                 15.994910
      H                  1.007825
      F                 18.998400


 Effective nuclear repulsion energy (a.u.)     233.0807650857

            Nuclear Dipole moment (a.u.) 
            ----------------------------
        X                 Y               Z
 ---------------- ---------------- ----------------
    -8.5717083805   -17.5565626216    73.8738889926


            XYZ format geometry
            -------------------
     7
 geometry
 C                    -0.00260774    -0.00530338    -0.03866014
 C                    -0.03318808     0.03015617     1.52822347
 O                     0.59087541     0.99421703    -0.53239744
 O                    -0.54752501    -0.99681569    -0.57686474
 H                     0.33815139     0.98345360     1.93868023
 F                    -1.31399565    -0.17049732     2.04563152
 F                     0.75775868    -0.98531541     2.07552610

 ==============================================================================
                                internuclear distances
 ------------------------------------------------------------------------------
       center one      |      center two      | atomic units |  angstroms
 ------------------------------------------------------------------------------
    2 C                |   1 C                |     2.96230  |     1.56758
    3 O                |   1 C                |     2.38663  |     1.26295
    4 O                |   1 C                |     2.36759  |     1.25287
    5 H                |   2 C                |     2.08311  |     1.10234
    6 F                |   2 C                |     2.63780  |     1.39587
    7 F                |   2 C                |     2.64313  |     1.39868
 ------------------------------------------------------------------------------
                         number of included internuclear distances:          6
 ==============================================================================



 ==============================================================================
                                 internuclear angles
 ------------------------------------------------------------------------------
        center 1       |       center 2       |       center 3       |  degrees
 ------------------------------------------------------------------------------
    2 C                |   1 C                |   3 O                |   112.46
    2 C                |   1 C                |   4 O                |   116.03
    3 O                |   1 C                |   4 O                |   131.51
    1 C                |   2 C                |   5 H                |   112.65
    1 C                |   2 C                |   6 F                |   112.65
    1 C                |   2 C                |   7 F                |   111.33
    5 H                |   2 C                |   6 F                |   107.18
    5 H                |   2 C                |   7 F                |   106.96
    6 F                |   2 C                |   7 F                |   105.63
 ------------------------------------------------------------------------------
                            number of included internuclear angles:          9
 ==============================================================================




                                 NWChem DFT Module
                                 -----------------


                      Basis "ao basis" -> "ao basis" (cartesian)
                      -----
  C (Carbon)
  ----------
            Exponent  Coefficients 
       -------------- ---------------------------------------------------------
  1 S  8.23600000E+03  0.000531
  1 S  1.23500000E+03  0.004108
  1 S  2.80800000E+02  0.021087
  1 S  7.92700000E+01  0.081853
  1 S  2.55900000E+01  0.234817
  1 S  8.99700000E+00  0.434401
  1 S  3.31900000E+00  0.346129
  1 S  3.64300000E-01 -0.008983

  2 S  8.23600000E+03 -0.000113
  2 S  1.23500000E+03 -0.000878
  2 S  2.80800000E+02 -0.004540
  2 S  7.92700000E+01 -0.018133
  2 S  2.55900000E+01 -0.055760
  2 S  8.99700000E+00 -0.126895
  2 S  3.31900000E+00 -0.170352
  2 S  3.64300000E-01  0.598684

  3 S  9.05900000E-01  1.000000

  4 S  1.28500000E-01  1.000000

  5 S  4.40200000E-02  1.000000

  6 P  1.87100000E+01  0.014031
  6 P  4.13300000E+00  0.086866
  6 P  1.20000000E+00  0.290216

  7 P  3.82700000E-01  1.000000

  8 P  1.20900000E-01  1.000000

  9 P  3.56900000E-02  1.000000

 10 D  1.09700000E+00  1.000000

 11 D  3.18000000E-01  1.000000

 12 D  1.00000000E-01  1.000000

 13 F  7.61000000E-01  1.000000

 14 F  2.68000000E-01  1.000000

  O (Oxygen)
  ----------
            Exponent  Coefficients 
       -------------- ---------------------------------------------------------
  1 S  1.53300000E+04  0.000508
  1 S  2.29900000E+03  0.003929
  1 S  5.22400000E+02  0.020243
  1 S  1.47300000E+02  0.079181
  1 S  4.75500000E+01  0.230687
  1 S  1.67600000E+01  0.433118
  1 S  6.20700000E+00  0.350260
  1 S  6.88200000E-01 -0.008154

  2 S  1.53300000E+04 -0.000115
  2 S  2.29900000E+03 -0.000895
  2 S  5.22400000E+02 -0.004636
  2 S  1.47300000E+02 -0.018724
  2 S  4.75500000E+01 -0.058463
  2 S  1.67600000E+01 -0.136463
  2 S  6.20700000E+00 -0.175740
  2 S  6.88200000E-01  0.603418

  3 S  1.75200000E+00  1.000000

  4 S  2.38400000E-01  1.000000

  5 S  7.37600000E-02  1.000000

  6 P  3.44600000E+01  0.015928
  6 P  7.74900000E+00  0.099740
  6 P  2.28000000E+00  0.310492

  7 P  7.15600000E-01  1.000000

  8 P  2.14000000E-01  1.000000

  9 P  5.97400000E-02  1.000000

 10 D  2.31400000E+00  1.000000

 11 D  6.45000000E-01  1.000000

 12 D  2.14000000E-01  1.000000

 13 F  1.42800000E+00  1.000000

 14 F  5.00000000E-01  1.000000

  H (Hydrogen)
  ------------
            Exponent  Coefficients 
       -------------- ---------------------------------------------------------
  1 S  3.38700000E+01  0.006068
  1 S  5.09500000E+00  0.045308
  1 S  1.15900000E+00  0.202822

  2 S  3.25800000E-01  1.000000

  3 S  1.02700000E-01  1.000000

  4 S  2.52600000E-02  1.000000

  5 P  1.40700000E+00  1.000000

  6 P  3.88000000E-01  1.000000

  7 P  1.02000000E-01  1.000000

  8 D  1.05700000E+00  1.000000

  9 D  2.47000000E-01  1.000000

  F (Fluorine)
  ------------
            Exponent  Coefficients 
       -------------- ---------------------------------------------------------
  1 S  1.95000000E+04  0.000507
  1 S  2.92300000E+03  0.003923
  1 S  6.64500000E+02  0.020200
  1 S  1.87500000E+02  0.079010
  1 S  6.06200000E+01  0.230439
  1 S  2.14200000E+01  0.432872
  1 S  7.95000000E+00  0.349964
  1 S  8.81500000E-01 -0.007892

  2 S  1.95000000E+04 -0.000117
  2 S  2.92300000E+03 -0.000912
  2 S  6.64500000E+02 -0.004717
  2 S  1.87500000E+02 -0.019086
  2 S  6.06200000E+01 -0.059655
  2 S  2.14200000E+01 -0.140010
  2 S  7.95000000E+00 -0.176782
  2 S  8.81500000E-01  0.605043

  3 S  2.25700000E+00  1.000000

  4 S  3.04100000E-01  1.000000

  5 S  9.15800000E-02  1.000000

  6 P  4.38800000E+01  0.016665
  6 P  9.92600000E+00  0.104472
  6 P  2.93000000E+00  0.317260

  7 P  9.13200000E-01  1.000000

  8 P  2.67200000E-01  1.000000

  9 P  7.36100000E-02  1.000000

 10 D  3.10700000E+00  1.000000

 11 D  8.55000000E-01  1.000000

 12 D  2.92000000E-01  1.000000

 13 F  1.91700000E+00  1.000000

 14 F  7.24000000E-01  1.000000



 Summary of "ao basis" -> "ao basis" (cartesian)
 ------------------------------------------------------------------------------
       Tag                 Description            Shells   Functions and Types
 ---------------- ------------------------------  ------  ---------------------
 C                        aug-cc-pVTZ               14       55   5s4p3d2f
 O                        aug-cc-pVTZ               14       55   5s4p3d2f
 H                        aug-cc-pVTZ                9       25   4s3p2d
 F                        aug-cc-pVTZ               14       55   5s4p3d2f




 Summary of "ao basis" -> "ao basis" (cartesian)
 ------------------------------------------------------------------------------
       Tag                 Description            Shells   Functions and Types
 ---------------- ------------------------------  ------  ---------------------
 C                        aug-cc-pVTZ               14       55   5s4p3d2f
 O                        aug-cc-pVTZ               14       55   5s4p3d2f
 H                        aug-cc-pVTZ                9       25   4s3p2d
 F                        aug-cc-pVTZ               14       55   5s4p3d2f


  Caching 1-el integrals 

            General Information
            -------------------
          SCF calculation type: DFT
          Wavefunction type:  spin polarized.
          No. of atoms     :     7
          No. of electrons :    47
           Alpha electrons :    24
            Beta electrons :    23
          Charge           :     0
          Spin multiplicity:     2
          Use of symmetry is: off; symmetry adaption is: off
          Maximum number of iterations: 200
          AO basis - number of functions:   355
                     number of shells:    93
          Convergence on energy requested:  1.00D-06
          Convergence on density requested:  1.00D-05
          Convergence on gradient requested:  5.00D-04

              XC Information
              --------------
          PerdewBurkeErnzerhof Exchange Functional  1.000          
            Perdew 1991 LDA Correlation Functional  1.000 local    
           PerdewBurkeErnz. Correlation Functional  1.000 non-local

             Grid Information
             ----------------
          Grid used for XC integration:  medium    
          Radial quadrature: Mura-Knowles        
          Angular quadrature: Lebedev. 
          Tag              B.-S. Rad. Rad. Pts. Rad. Cut. Ang. Pts.
          ---              ---------- --------- --------- ---------
          C                   0.70       49          13.0       434
          O                   0.60       49          14.0       434
          H                   0.35       45          13.0       434
          F                   0.50       49          12.0       434
          Grid pruning is: on 
          Number of quadrature shells:   339
          Spatial weights used:  Erf1

          Convergence Information
          -----------------------
          Convergence aids based upon iterative change in 
          total energy or number of iterations. 
          Levelshifting, if invoked, occurs when the 
          HOMO/LUMO gap drops below (HL_TOL):  1.00D-02
          DIIS, if invoked, will attempt to extrapolate 
          using up to (NFOCK): 10 stored Fock matrices.

                    Damping(40%)  Levelshifting(0.0)       DIIS
                  --------------- ------------------- ---------------
          dE  on:    start            0.00D+00            start   
          dE off:  200 iters          0.00D+00          200 iters 


      Screening Tolerance Information
      -------------------------------
          Density screening/tol_rho:  1.00D-10
          AO Gaussian exp screening on grid/accAOfunc:  14
          CD Gaussian exp screening on grid/accCDfunc:  20
          XC Gaussian exp screening on grid/accXCfunc:  20
          Schwarz screening/accCoul:  1.00D-08


 Forcing the number of linearly dependent vectors to be  0

      Superposition of Atomic Density Guess
      -------------------------------------

 Sum of atomic energies:        -424.22924910
   Time after variat. SCF:      0.4
   Time prior to 1st pass:      0.4

 Grid_pts file          = /jet/home/hmt47/nwchem_scratch//dft.gridpts.00
 Record size in doubles =  12289        No. of grid_pts per rec  =   3070
 Max. records in memory =      5        Max. recs in file   =  67550051


           Memory utilization after 1st SCF pass: 
           Heap Space remaining (MW):       33.49            33485664
          Stack Space remaining (MW):       67.11            67105852

   convergence    iter        energy       DeltaE   RMS-Dens  Diis-err    time
 ---------------- ----- ----------------- --------- --------- ---------  ------
 d=40,ls=0.0,diis     1   -427.4005316396 -6.60D+02  3.97D-03  1.20D+01     1.5
                                                     3.81D-03  1.11D+01
 d=40,ls=0.0,diis     2   -426.9045748300  4.96D-01  2.85D-03  2.01D+00     7.7
                                                     3.09D-03  1.85D+00
 d=40,ls=0.0,diis     3   -426.4332180784  4.71D-01  1.18D-03  8.41D-01    13.9
                                                     1.58D-03  7.29D-01
 d=40,ls=0.0,diis     4   -426.5538292954 -1.21D-01  5.56D-04  2.33D-01    20.1
                                                     1.51D-03  1.87D-01
 d=40,ls=0.0,diis     5   -426.5780812594 -2.43D-02  3.11D-04  1.11D-01    26.3
                                                     9.48D-04  8.44D-02
  Resetting Diis
 d=40,ls=0.0,diis     6   -426.6167967065 -3.87D-02  1.19D-04  1.64D-02    32.5
                                                     3.65D-04  1.38D-02
 d=40,ls=0.0,diis     7   -426.6228425932 -6.05D-03  2.66D-04  3.88D-03    38.8
                                                     9.77D-04  3.27D-03
 d=40,ls=0.0,diis     8   -426.5946543581  2.82D-02  1.22D-04  6.74D-02    45.3
                                                     7.43D-04  6.00D-02
 d=40,ls=0.0,diis     9   -426.6216094079 -2.70D-02  6.97D-05  6.05D-03    51.6
                                                     1.67D-04  5.97D-03
 d=40,ls=0.0,diis    10   -426.6239599974 -2.35D-03  5.10D-05  2.22D-03    57.3
                                                     1.52D-04  2.18D-03
 d=40,ls=0.0,diis    11   -426.6252590027 -1.30D-03  2.66D-05  1.38D-04    63.3
                                                     4.62D-05  1.38D-04
 d=40,ls=0.0,diis    12   -426.6255056853 -2.47D-04  1.21D-05  3.23D-05    69.5
                                                     1.63D-05  3.31D-05
 d=40,ls=0.0,diis    13   -426.6256051923 -9.95D-05  4.70D-06  7.23D-06    75.6
                                                     6.28D-06  7.25D-06
 d=40,ls=0.0,diis    14   -426.6256434788 -3.83D-05  2.12D-06  3.22D-06    82.0
                                                     3.20D-06  3.22D-06
 d=40,ls=0.0,diis    15   -426.6256591476 -1.57D-05  1.34D-06  1.24D-06    87.9
                                                     2.84D-06  1.23D-06
 d=40,ls=0.0,diis    16   -426.6256655813 -6.43D-06  5.45D-07  1.49D-07    94.1
                                                     8.26D-07  1.46D-07
 d=40,ls=0.0,diis    17   -426.6256680263 -2.45D-06  2.28D-07  3.29D-08   100.3
                                                     4.36D-07  3.28D-08
 d=40,ls=0.0,diis    18   -426.6256689983 -9.72D-07  1.01D-07  5.49D-09   106.5
                                                     2.52D-07  5.55D-09


         Total DFT energy =     -426.625668998259
      One electron energy =    -1050.786420707822
           Coulomb energy =      439.772498133374
    Exchange-Corr. energy =      -48.692511509519
 Nuclear repulsion energy =      233.080765085707

 Numeric. integr. density =       47.000002262527

     Total iterative time =    106.0s



                    DFT Final Alpha Molecular Orbital Analysis
                    ------------------------------------------

 Vector    1  Occ=1.000000D+00  E=-2.432541D+01
              MO Center=  7.6D-01, -9.9D-01,  2.1D+00, r^2= 1.2D-02
   Bfn.  Coefficient  Atom+Function         Bfn.  Coefficient  Atom+Function  
  ----- ------------  ---------------      ----- ------------  ---------------
   301      0.977208  7 F  s                223     -0.096705  5 H  s          
   303      0.064642  7 F  s                 68      0.058240  2 C  py         
   304     -0.046679  7 F  s                 59      0.032024  2 C  s          
   305     -0.030928  7 F  s                 88      0.030320  2 C  dyy        
    90      0.027795  2 C  dzz              330      0.025709  7 F  dxx        

 Vector    2  Occ=1.000000D+00  E=-2.432384D+01
              MO Center= -1.3D+00, -1.7D-01,  2.0D+00, r^2= 1.2D-02
   Bfn.  Coefficient  Atom+Function         Bfn.  Coefficient  Atom+Function  
  ----- ------------  ---------------      ----- ------------  ---------------
   246      0.977169  6 F  s                223     -0.092886  5 H  s          
   248      0.064591  6 F  s                249     -0.049918  6 F  s          
    68      0.047892  2 C  py                59      0.039630  2 C  s          
    67      0.037683  2 C  px                88      0.037142  2 C  dyy        
   250     -0.032306  6 F  s                  4     -0.029280  1 C  s          

 Vector    3  Occ=1.000000D+00  E=-1.883091D+01
              MO Center= -5.5D-01, -1.0D+00, -5.8D-01, r^2= 1.5D-02
   Bfn.  Coefficient  Atom+Function         Bfn.  Coefficient  Atom+Function  
  ----- ------------  ---------------      ----- ------------  ---------------
   166      0.982839  4 O  s                 59     -0.070056  2 C  s          
   168      0.068356  4 O  s                114      0.052898  3 O  s          
    50      0.045126  1 C  fxyz             169     -0.044004  4 O  s          
    54     -0.041755  1 C  fyzz              14      0.039906  1 C  pz         
    53      0.039329  1 C  fyyz             222      0.031431  5 H  s          

 Vector    4  Occ=1.000000D+00  E=-1.882498D+01
              MO Center=  5.9D-01,  9.9D-01, -5.3D-01, r^2= 1.5D-02
   Bfn.  Coefficient  Atom+Function         Bfn.  Coefficient  Atom+Function  
  ----- ------------  ---------------      ----- ------------  ---------------
   111      0.981943  3 O  s                223     -0.075434  5 H  s          
   113      0.067535  3 O  s                169      0.058103  4 O  s          
   114     -0.054073  3 O  s                  4     -0.049530  1 C  s          
    54      0.046400  1 C  fyzz              59      0.044035  2 C  s          
    50      0.034321  1 C  fxyz              53      0.032606  1 C  fyyz       

 Vector    5  Occ=1.000000D+00  E=-1.012660D+01
              MO Center= -3.3D-02,  3.0D-02,  1.5D+00, r^2= 2.8D-02
   Bfn.  Coefficient  Atom+Function         Bfn.  Coefficient  Atom+Function  
  ----- ------------  ---------------      ----- ------------  ---------------
    56      1.012525  2 C  s                 57      0.084508  2 C  s          
    58      0.065266  2 C  s                222     -0.049904  5 H  s          
    59     -0.034799  2 C  s                 82      0.028050  2 C  dyy        
    68     -0.027788  2 C  py               105      0.025258  2 C  fxyz       

 Vector    6  Occ=1.000000D+00  E=-1.006712D+01
              MO Center= -2.6D-03, -5.3D-03, -3.9D-02, r^2= 2.8D-02
   Bfn.  Coefficient  Atom+Function         Bfn.  Coefficient  Atom+Function  
  ----- ------------  ---------------      ----- ------------  ---------------
     1      1.012424  1 C  s                  2      0.085054  1 C  s          
     3      0.067279  1 C  s                169     -0.066848  4 O  s          
     4     -0.058805  1 C  s                114     -0.042829  3 O  s          
    69     -0.039063  2 C  pz                59      0.034455  2 C  s          
    27      0.032623  1 C  dyy               25      0.032295  1 C  dxy        

 Vector    7  Occ=1.000000D+00  E=-1.194548D+00
              MO Center= -2.3D-01, -4.9D-01,  2.0D+00, r^2= 1.3D+00
   Bfn.  Coefficient  Atom+Function         Bfn.  Coefficient  Atom+Function  
  ----- ------------  ---------------      ----- ------------  ---------------
   302      0.341675  7 F  s                247      0.337062  6 F  s          
   304      0.249600  7 F  s                249      0.246352  6 F  s          
    57      0.159991  2 C  s                303      0.101735  7 F  s          
   248      0.100359  6 F  s                223      0.070064  5 H  s          
    59     -0.064360  2 C  s                250      0.053898  6 F  s          

 Vector    8  Occ=1.000000D+00  E=-1.141428D+00
              MO Center= -2.6D-01, -5.1D-01,  2.0D+00, r^2= 1.4D+00
   Bfn.  Coefficient  Atom+Function         Bfn.  Coefficient  Atom+Function  
  ----- ------------  ---------------      ----- ------------  ---------------
   247      0.373841  6 F  s                302     -0.370286  7 F  s          
   249      0.263601  6 F  s                304     -0.261648  7 F  s          
   248      0.111142  6 F  s                303     -0.110080  7 F  s          
    61     -0.073022  2 C  px                64     -0.061466  2 C  px         
   250      0.035552  6 F  s                254      0.033801  6 F  px         

 Vector    9  Occ=1.000000D+00  E=-1.048802D+00
              MO Center= -2.7D-02, -7.4D-02, -3.6D-01, r^2= 1.2D+00
   Bfn.  Coefficient  Atom+Function         Bfn.  Coefficient  Atom+Function  
  ----- ------------  ---------------      ----- ------------  ---------------
   167      0.306642  4 O  s                112      0.273997  3 O  s          
     2      0.271926  1 C  s                169      0.165259  4 O  s          
   114      0.136761  3 O  s                168      0.086769  4 O  s          
   170      0.082068  4 O  s                  3      0.078229  1 C  s          
   113      0.077639  3 O  s                115      0.074522  3 O  s          

 Vector   10  Occ=1.000000D+00  E=-9.760041D-01
              MO Center=  5.3D-02,  6.5D-02, -3.9D-01, r^2= 1.3D+00
   Bfn.  Coefficient  Atom+Function         Bfn.  Coefficient  Atom+Function  
  ----- ------------  ---------------      ----- ------------  ---------------
   112      0.350177  3 O  s                167     -0.325730  4 O  s          
   114      0.304221  3 O  s                169     -0.285490  4 O  s          
     7      0.142190  1 C  py               113      0.096741  3 O  s          
   168     -0.089818  4 O  s                  6      0.081259  1 C  px         
   117     -0.051447  3 O  py               120     -0.051238  3 O  py         

 Vector   11  Occ=1.000000D+00  E=-7.212269D-01
              MO Center= -4.5D-02, -4.2D-02,  1.2D+00, r^2= 1.8D+00
   Bfn.  Coefficient  Atom+Function         Bfn.  Coefficient  Atom+Function  
  ----- ------------  ---------------      ----- ------------  ---------------
    57      0.361692  2 C  s                222      0.151301  5 H  s          
   247     -0.143881  6 F  s                302     -0.144340  7 F  s          
    11      0.126620  1 C  pz                 8      0.123151  1 C  pz         
     2      0.114958  1 C  s                112     -0.109234  3 O  s          
   223     -0.106134  5 H  s                257      0.098449  6 F  px         

 Vector   12  Occ=1.000000D+00  E=-5.835425D-01
              MO Center= -1.1D-01, -1.8D-01,  1.2D+00, r^2= 2.4D+00
   Bfn.  Coefficient  Atom+Function         Bfn.  Coefficient  Atom+Function  
  ----- ------------  ---------------      ----- ------------  ---------------
    59      0.221140  2 C  s                 63      0.200840  2 C  pz         
     2     -0.190224  1 C  s                 66      0.184254  2 C  pz         
     4     -0.171952  1 C  s                251      0.144775  6 F  px         
   254      0.139641  6 F  px               249     -0.135971  6 F  s          
   304     -0.135445  7 F  s                167      0.120508  4 O  s          

 Vector   13  Occ=1.000000D+00  E=-5.407449D-01
              MO Center=  4.4D-02, -5.0D-01,  1.9D+00, r^2= 1.8D+00
   Bfn.  Coefficient  Atom+Function         Bfn.  Coefficient  Atom+Function  
  ----- ------------  ---------------      ----- ------------  ---------------
   307      0.166452  7 F  py               310      0.161350  7 F  py         
    62     -0.152372  2 C  py               308     -0.148103  7 F  pz         
   311     -0.144039  7 F  pz               304     -0.142010  7 F  s          
    61      0.141298  2 C  px               306     -0.137557  7 F  px         
   309     -0.133424  7 F  px                64      0.127190  2 C  px         

 Vector   14  Occ=1.000000D+00  E=-5.392000D-01
              MO Center= -3.4D-01, -2.1D-02,  1.8D+00, r^2= 1.9D+00
   Bfn.  Coefficient  Atom+Function         Bfn.  Coefficient  Atom+Function  
  ----- ------------  ---------------      ----- ------------  ---------------
   251     -0.183855  6 F  px               254     -0.177997  6 F  px         
    62      0.167377  2 C  py                61      0.151698  2 C  px         
    65      0.138455  2 C  py                64      0.129207  2 C  px         
   222      0.121075  5 H  s                253      0.119998  6 F  pz         
   256      0.116584  6 F  pz               257     -0.116894  6 F  px         

 Vector   15  Occ=1.000000D+00  E=-4.918335D-01
              MO Center= -2.7D-02, -7.8D-02, -2.4D-01, r^2= 2.6D+00
   Bfn.  Coefficient  Atom+Function         Bfn.  Coefficient  Atom+Function  
  ----- ------------  ---------------      ----- ------------  ---------------
     2      0.209435  1 C  s                169     -0.188045  4 O  s          
   167     -0.174426  4 O  s                112     -0.172399  3 O  s          
   172      0.171754  4 O  py               117     -0.162894  3 O  py         
   114     -0.160996  3 O  s                175      0.161588  4 O  py         
   120     -0.153357  3 O  py                 8     -0.139790  1 C  pz         

 Vector   16  Occ=1.000000D+00  E=-4.572493D-01
              MO Center=  1.1D-02, -2.1D-02, -4.2D-01, r^2= 2.5D+00
   Bfn.  Coefficient  Atom+Function         Bfn.  Coefficient  Atom+Function  
  ----- ------------  ---------------      ----- ------------  ---------------
     7      0.172785  1 C  py               172     -0.151917  4 O  py         
   117     -0.150637  3 O  py               173     -0.151055  4 O  pz         
   176     -0.151100  4 O  pz               175     -0.146467  4 O  py         
    59      0.145074  2 C  s                112     -0.145388  3 O  s          
   120     -0.145592  3 O  py               223     -0.145102  5 H  s          

 Vector   17  Occ=1.000000D+00  E=-4.419202D-01
              MO Center= -4.8D-02, -1.5D-01,  9.7D-02, r^2= 2.4D+00
   Bfn.  Coefficient  Atom+Function         Bfn.  Coefficient  Atom+Function  
  ----- ------------  ---------------      ----- ------------  ---------------
     6      0.184105  1 C  px               171      0.166638  4 O  px         
   174      0.164369  4 O  px                 9      0.156037  1 C  px         
   116      0.150741  3 O  px               119      0.148917  3 O  px         
     7     -0.109283  1 C  py               177      0.101041  4 O  px         
   122      0.092441  3 O  px               251      0.089217  6 F  px         

 Vector   18  Occ=1.000000D+00  E=-4.271778D-01
              MO Center= -2.2D-01, -4.5D-01,  1.6D+00, r^2= 2.6D+00
   Bfn.  Coefficient  Atom+Function         Bfn.  Coefficient  Atom+Function  
  ----- ------------  ---------------      ----- ------------  ---------------
   253      0.213088  6 F  pz               256      0.208546  6 F  pz         
   308      0.208978  7 F  pz               311      0.204581  7 F  pz         
   252     -0.138180  6 F  py               259      0.136160  6 F  pz         
   255     -0.134702  6 F  py               314      0.131791  7 F  pz         
   306     -0.113969  7 F  px               309     -0.109958  7 F  px         

 Vector   19  Occ=1.000000D+00  E=-4.076491D-01
              MO Center= -1.7D-01, -4.9D-01,  1.8D+00, r^2= 2.3D+00
   Bfn.  Coefficient  Atom+Function         Bfn.  Coefficient  Atom+Function  
  ----- ------------  ---------------      ----- ------------  ---------------
   308     -0.210504  7 F  pz               253      0.207393  6 F  pz         
   311     -0.206859  7 F  pz               256      0.203900  6 F  pz         
   252      0.167201  6 F  py               307     -0.166431  7 F  py         
   255      0.163501  6 F  py               310     -0.162274  7 F  py         
   314     -0.141027  7 F  pz               259      0.135596  6 F  pz         

 Vector   20  Occ=1.000000D+00  E=-3.895112D-01
              MO Center= -2.7D-01, -5.3D-01,  1.9D+00, r^2= 2.0D+00
   Bfn.  Coefficient  Atom+Function         Bfn.  Coefficient  Atom+Function  
  ----- ------------  ---------------      ----- ------------  ---------------
   306      0.263649  7 F  px               309      0.259233  7 F  px         
   252     -0.206163  6 F  py               255     -0.202408  6 F  py         
   312      0.179399  7 F  px               251      0.168297  6 F  px         
   254      0.165590  6 F  px               258     -0.153411  6 F  py         
   253      0.126823  6 F  pz               256      0.124696  6 F  pz         

 Vector   21  Occ=1.000000D+00  E=-3.752595D-01
              MO Center= -2.0D-01, -2.3D-01,  1.5D+00, r^2= 2.7D+00
   Bfn.  Coefficient  Atom+Function         Bfn.  Coefficient  Atom+Function  
  ----- ------------  ---------------      ----- ------------  ---------------
   252      0.213192  6 F  py               255      0.208895  6 F  py         
   307      0.195429  7 F  py               310      0.191894  7 F  py         
   258      0.151695  6 F  py               313      0.135862  7 F  py         
   221     -0.115356  5 H  s                 65     -0.114378  2 C  py         
   176      0.106424  4 O  pz                62     -0.104974  2 C  py         

 Vector   22  Occ=1.000000D+00  E=-3.180080D-01
              MO Center=  2.7D-02,  5.3D-04, -5.2D-01, r^2= 1.9D+00
   Bfn.  Coefficient  Atom+Function         Bfn.  Coefficient  Atom+Function  
  ----- ------------  ---------------      ----- ------------  ---------------
   119      0.251741  3 O  px               116      0.248503  3 O  px         
   174     -0.238832  4 O  px               171     -0.235282  4 O  px         
   122      0.155511  3 O  px               175      0.152452  4 O  py         
   172      0.150206  4 O  py               177     -0.144076  4 O  px         
   120     -0.128338  3 O  py               117     -0.126649  3 O  py         

 Vector   23  Occ=1.000000D+00  E=-3.140139D-01
              MO Center= -2.9D-01, -5.4D-01, -1.2D-01, r^2= 2.2D+00
   Bfn.  Coefficient  Atom+Function         Bfn.  Coefficient  Atom+Function  
  ----- ------------  ---------------      ----- ------------  ---------------
   176      0.305665  4 O  pz               173      0.300938  4 O  pz         
   179      0.204357  4 O  pz               120     -0.140603  3 O  py         
   117     -0.136633  3 O  py                66      0.132501  2 C  pz         
    59      0.130127  2 C  s                 63      0.117059  2 C  pz         
   175     -0.116132  4 O  py               172     -0.110772  4 O  py         

 Vector   24  Occ=1.000000D+00  E=-3.105272D-01
              MO Center=  3.3D-01,  5.7D-01, -1.2D-01, r^2= 2.1D+00
   Bfn.  Coefficient  Atom+Function         Bfn.  Coefficient  Atom+Function  
  ----- ------------  ---------------      ----- ------------  ---------------
   121      0.328054  3 O  pz               118      0.321689  3 O  pz         
   124      0.204524  3 O  pz                66      0.136823  2 C  pz         
    63      0.116000  2 C  pz               120      0.109148  3 O  py         
   117      0.107505  3 O  py               123      0.099347  3 O  py         
   253     -0.098963  6 F  pz               175      0.097561  4 O  py         

 Vector   25  Occ=0.000000D+00  E=-1.037994D-01
              MO Center=  1.0D-02,  1.1D-03,  2.6D-01, r^2= 2.4D+00
   Bfn.  Coefficient  Atom+Function         Bfn.  Coefficient  Atom+Function  
  ----- ------------  ---------------      ----- ------------  ---------------
     9      0.247065  1 C  px                 6      0.231357  1 C  px         
    12      0.225619  1 C  px               119     -0.177795  3 O  px         
   122     -0.172618  3 O  px               116     -0.170718  3 O  px         
   174     -0.165618  4 O  px               177     -0.161634  4 O  px         
   171     -0.158555  4 O  px               305      0.154604  7 F  s          

 Vector   26  Occ=0.000000D+00  E=-2.666589D-02
              MO Center=  1.8D-01,  9.1D-01,  2.1D+00, r^2= 9.3D+00
   Bfn.  Coefficient  Atom+Function         Bfn.  Coefficient  Atom+Function  
  ----- ------------  ---------------      ----- ------------  ---------------
   224      1.426358  5 H  s                  4     -0.513153  1 C  s          
    59      0.471103  2 C  s                 60     -0.460541  2 C  s          
     5     -0.417321  1 C  s                 71     -0.371050  2 C  py         
    90      0.293472  2 C  dzz               88      0.289964  2 C  dyy        
    14     -0.268880  1 C  pz                17     -0.248840  1 C  pz         

 Vector   27  Occ=0.000000D+00  E= 3.244728D-03
              MO Center=  2.0D-01,  5.5D-01,  8.1D-01, r^2= 1.1D+01
   Bfn.  Coefficient  Atom+Function         Bfn.  Coefficient  Atom+Function  
  ----- ------------  ---------------      ----- ------------  ---------------
     5      4.578882  1 C  s                 60     -4.076948  2 C  s          
    59      2.143613  2 C  s                223     -1.809768  5 H  s          
    72      1.687747  2 C  pz                17      1.384921  1 C  pz         
    88      0.827805  2 C  dyy              224     -0.745470  5 H  s          
    90      0.647040  2 C  dzz               85      0.621978  2 C  dxx        

 Vector   28  Occ=0.000000D+00  E= 1.047957D-02
              MO Center=  4.2D-01, -3.9D-02,  1.4D+00, r^2= 9.4D+00
   Bfn.  Coefficient  Atom+Function         Bfn.  Coefficient  Atom+Function  
  ----- ------------  ---------------      ----- ------------  ---------------
   305      0.990714  7 F  s                 70     -0.801662  2 C  px         
    71      0.756572  2 C  py               170      0.602729  4 O  s          
    67     -0.518232  2 C  px                68      0.519696  2 C  py         
     5     -0.487963  1 C  s                 12      0.411057  1 C  px         
     4     -0.365478  1 C  s                115      0.360068  3 O  s          

 Vector   29  Occ=0.000000D+00  E= 1.104586D-02
              MO Center= -3.3D-01, -6.8D-02,  5.1D-01, r^2= 1.3D+01
   Bfn.  Coefficient  Atom+Function         Bfn.  Coefficient  Atom+Function  
  ----- ------------  ---------------      ----- ------------  ---------------
    60      3.721791  2 C  s                170     -1.611895  4 O  s          
     5     -1.384758  1 C  s                223      1.217957  5 H  s          
    17     -1.171505  1 C  pz                 4      0.977060  1 C  s          
    72     -0.848079  2 C  pz               115     -0.810824  3 O  s          
    59     -0.733339  2 C  s                 71     -0.719644  2 C  py         

 Vector   30  Occ=0.000000D+00  E= 4.360701D-02
              MO Center= -4.3D-01, -4.3D-01,  1.9D+00, r^2= 1.5D+01
   Bfn.  Coefficient  Atom+Function         Bfn.  Coefficient  Atom+Function  
  ----- ------------  ---------------      ----- ------------  ---------------
    60      8.827052  2 C  s                  5     -5.057557  1 C  s          
   224     -2.381517  5 H  s                 71      2.303056  2 C  py         
    17     -2.005510  1 C  pz                59     -1.680042  2 C  s          
    16     -1.479229  1 C  py                 4      1.307651  1 C  s          
    70      1.067098  2 C  px                90     -1.028808  2 C  dzz        

 Vector   31  Occ=0.000000D+00  E= 5.042493D-02
              MO Center=  7.0D-02, -8.8D-02, -2.7D-01, r^2= 1.1D+01
   Bfn.  Coefficient  Atom+Function         Bfn.  Coefficient  Atom+Function  
  ----- ------------  ---------------      ----- ------------  ---------------
    15      2.304278  1 C  px                60     -1.431779  2 C  s          
    70     -1.082409  2 C  px                 5      1.054916  1 C  s          
   305     -0.721533  7 F  s                 17      0.686851  1 C  pz         
    16     -0.610484  1 C  py               115     -0.496584  3 O  s          
   250      0.453189  6 F  s                125     -0.435122  3 O  px         

 Vector   32  Occ=0.000000D+00  E= 5.533668D-02
              MO Center=  9.6D-02,  1.3D-01, -7.0D-01, r^2= 1.4D+01
   Bfn.  Coefficient  Atom+Function         Bfn.  Coefficient  Atom+Function  
  ----- ------------  ---------------      ----- ------------  ---------------
     5      4.397376  1 C  s                170     -2.890653  4 O  s          
    60     -2.855395  2 C  s                 16     -2.560787  1 C  py         
    17      2.382444  1 C  pz               223     -1.652991  5 H  s          
   115      1.388752  3 O  s                 71      1.364281  2 C  py         
    15     -1.214270  1 C  px                 4      1.131014  1 C  s          

 Vector   33  Occ=0.000000D+00  E= 5.665671D-02
              MO Center= -4.4D-04,  1.6D-01,  1.3D+00, r^2= 1.5D+01
   Bfn.  Coefficient  Atom+Function         Bfn.  Coefficient  Atom+Function  
  ----- ------------  ---------------      ----- ------------  ---------------
    72      2.747395  2 C  pz                17     -2.037490  1 C  pz         
    59     -1.654247  2 C  s                  5      1.602820  1 C  s          
    60     -1.535765  2 C  s                  4      1.453826  1 C  s          
    69      1.384806  2 C  pz               170     -1.342446  4 O  s          
    16     -0.774322  1 C  py               115      0.777134  3 O  s          

 Vector   34  Occ=0.000000D+00  E= 6.531583D-02
              MO Center=  2.3D-01,  8.8D-01,  1.0D+00, r^2= 1.9D+01
   Bfn.  Coefficient  Atom+Function         Bfn.  Coefficient  Atom+Function  
  ----- ------------  ---------------      ----- ------------  ---------------
     5     16.741479  1 C  s                 60     -5.640760  2 C  s          
   224     -4.742995  5 H  s                 72      4.087350  2 C  pz         
    17      3.045511  1 C  pz               115     -3.030452  3 O  s          
     4      1.494351  1 C  s                 71      1.194582  2 C  py         
    35     -1.100472  1 C  dzz               30     -1.058533  1 C  dxx        

 Vector   35  Occ=0.000000D+00  E= 7.394397D-02
              MO Center=  3.5D-03,  2.1D-01,  1.6D+00, r^2= 1.3D+01
   Bfn.  Coefficient  Atom+Function         Bfn.  Coefficient  Atom+Function  
  ----- ------------  ---------------      ----- ------------  ---------------
    70      2.559103  2 C  px                15     -1.814350  1 C  px         
   250      1.467446  6 F  s                 71     -1.274687  2 C  py         
   305     -1.152463  7 F  s                 67      1.092293  2 C  px         
    16      0.840412  1 C  py                68     -0.766452  2 C  py         
    59     -0.625186  2 C  s                 86     -0.555269  2 C  dxy        

 Vector   36  Occ=0.000000D+00  E= 8.013349D-02
              MO Center=  1.4D-01,  3.4D-01,  1.7D+00, r^2= 1.4D+01
   Bfn.  Coefficient  Atom+Function         Bfn.  Coefficient  Atom+Function  
  ----- ------------  ---------------      ----- ------------  ---------------
    60     11.375127  2 C  s                  4     11.106064  1 C  s          
    59    -10.205276  2 C  s                  5     -6.130829  1 C  s          
    69      4.285529  2 C  pz                14      3.883126  1 C  pz         
    35      3.868401  1 C  dzz               90     -3.798404  2 C  dzz        
    88     -2.913505  2 C  dyy              115     -2.913594  3 O  s          

 Vector   37  Occ=0.000000D+00  E= 9.373182D-02
              MO Center= -1.1D-01, -2.9D-01,  8.6D-01, r^2= 1.3D+01
   Bfn.  Coefficient  Atom+Function         Bfn.  Coefficient  Atom+Function  
  ----- ------------  ---------------      ----- ------------  ---------------
     5      3.080396  1 C  s                250     -2.777425  6 F  s          
   305      2.560011  7 F  s                 60     -2.151492  2 C  s          
    67     -2.112094  2 C  px                 4      1.845408  1 C  s          
   115     -1.579524  3 O  s                 87     -1.559863  2 C  dxz        
   260     -1.547751  6 F  px                59     -1.241199  2 C  s          

 Vector   38  Occ=0.000000D+00  E= 1.026279D-01
              MO Center=  1.7D-01,  3.1D-01,  3.0D-02, r^2= 1.2D+01
   Bfn.  Coefficient  Atom+Function         Bfn.  Coefficient  Atom+Function  
  ----- ------------  ---------------      ----- ------------  ---------------
     5     10.128741  1 C  s                 60    -10.142237  2 C  s          
    59     -8.615424  2 C  s                  4      6.791458  1 C  s          
   115     -5.208255  3 O  s                170     -4.829456  4 O  s          
   223      3.997891  5 H  s                250      3.327362  6 F  s          
   305      3.083002  7 F  s                 17      2.905015  1 C  pz         

 Vector   39  Occ=0.000000D+00  E= 1.256565D-01
              MO Center= -1.6D-01, -2.3D-01,  6.2D-01, r^2= 1.4D+01
   Bfn.  Coefficient  Atom+Function         Bfn.  Coefficient  Atom+Function  
  ----- ------------  ---------------      ----- ------------  ---------------
     5     25.366441  1 C  s                 60    -18.166954  2 C  s          
     4      7.398207  1 C  s                115     -6.527155  3 O  s          
   170     -6.386481  4 O  s                223     -5.859294  5 H  s          
    72      5.574910  2 C  pz                17      4.043015  1 C  pz         
   224     -2.914923  5 H  s                 69      2.864636  2 C  pz         

 Vector   40  Occ=0.000000D+00  E= 1.348345D-01
              MO Center=  4.3D-02, -6.2D-03,  9.8D-01, r^2= 1.6D+01
   Bfn.  Coefficient  Atom+Function         Bfn.  Coefficient  Atom+Function  
  ----- ------------  ---------------      ----- ------------  ---------------
    60     15.015589  2 C  s                  5    -10.654540  1 C  s          
     4     10.090508  1 C  s                 59     -5.448085  2 C  s          
   115     -5.380079  3 O  s                170     -4.381048  4 O  s          
    35      3.720180  1 C  dzz               33      3.551206  1 C  dyy        
    30      2.989685  1 C  dxx              305     -2.767632  7 F  s          

 Vector   41  Occ=0.000000D+00  E= 1.461890D-01
              MO Center= -4.0D-01, -1.7D-01,  2.2D-01, r^2= 1.4D+01
   Bfn.  Coefficient  Atom+Function         Bfn.  Coefficient  Atom+Function  
  ----- ------------  ---------------      ----- ------------  ---------------
     5     10.724884  1 C  s                 60     -6.686988  2 C  s          
    59     -5.518364  2 C  s                223      4.081932  5 H  s          
    34      3.419261  1 C  dyz               68     -3.339998  2 C  py         
   170     -3.157479  4 O  s                250      2.841305  6 F  s          
    72      2.546823  2 C  pz                71      1.991895  2 C  py         

 Vector   42  Occ=0.000000D+00  E= 1.475636D-01
              MO Center=  1.8D-01, -2.4D-01,  6.3D-01, r^2= 1.5D+01
   Bfn.  Coefficient  Atom+Function         Bfn.  Coefficient  Atom+Function  
  ----- ------------  ---------------      ----- ------------  ---------------
    67      3.017231  2 C  px               250      2.548829  6 F  s          
    60     -2.238273  2 C  s                 59      2.051572  2 C  s          
   260      1.652188  6 F  px               305     -1.623766  7 F  s          
     4     -1.465167  1 C  s                 70     -1.392037  2 C  px         
    71     -1.262423  2 C  py               180     -1.180518  4 O  px         

 Vector   43  Occ=0.000000D+00  E= 1.557143D-01
              MO Center= -4.0D-02, -4.5D-03,  1.2D+00, r^2= 1.5D+01
   Bfn.  Coefficient  Atom+Function         Bfn.  Coefficient  Atom+Function  
  ----- ------------  ---------------      ----- ------------  ---------------
    60    -17.478253  2 C  s                 59     16.055601  2 C  s          
     5     13.623999  1 C  s                250     -5.446292  6 F  s          
    90      5.394713  2 C  dzz               85      5.294047  2 C  dxx        
   305     -5.137058  7 F  s                 88      5.030124  2 C  dyy        
   223     -4.614977  5 H  s                  4     -4.571111  1 C  s          

 Vector   44  Occ=0.000000D+00  E= 1.667055D-01
              MO Center= -2.3D-01, -4.8D-01,  1.4D+00, r^2= 1.3D+01
   Bfn.  Coefficient  Atom+Function         Bfn.  Coefficient  Atom+Function  
  ----- ------------  ---------------      ----- ------------  ---------------
     5      9.150160  1 C  s                 60     -8.667428  2 C  s          
   170     -4.662310  4 O  s                 71     -2.960423  2 C  py         
     4      2.907851  1 C  s                305      2.664778  7 F  s          
    86      2.561741  2 C  dxy               16      2.286335  1 C  py         
   317     -1.970281  7 F  pz                87      1.921962  2 C  dxz        

 Vector   45  Occ=0.000000D+00  E= 1.681608D-01
              MO Center= -1.4D-01, -4.3D-01,  9.7D-01, r^2= 1.5D+01
   Bfn.  Coefficient  Atom+Function         Bfn.  Coefficient  Atom+Function  
  ----- ------------  ---------------      ----- ------------  ---------------
    60     11.047806  2 C  s                  5     -9.334957  1 C  s          
   170      6.270449  4 O  s                  4     -3.382082  1 C  s          
    16     -3.362118  1 C  py                71      3.118860  2 C  py         
    17     -3.086878  1 C  pz               181      2.853915  4 O  py         
    15     -2.644590  1 C  px                70      2.524818  2 C  px         

 Vector   46  Occ=0.000000D+00  E= 1.755567D-01
              MO Center= -4.7D-01,  9.5D-02, -2.8D-01, r^2= 1.4D+01
   Bfn.  Coefficient  Atom+Function         Bfn.  Coefficient  Atom+Function  
  ----- ------------  ---------------      ----- ------------  ---------------
   223     11.289472  5 H  s                  5      8.191620  1 C  s          
   115     -5.982761  3 O  s                 69     -5.883704  2 C  pz         
    59     -4.571284  2 C  s                 60     -3.998692  2 C  s          
    14     -3.590020  1 C  pz                 4     -3.490571  1 C  s          
    68     -3.035243  2 C  py                88     -2.581017  2 C  dyy        

 Vector   47  Occ=0.000000D+00  E= 1.782838D-01
              MO Center=  4.8D-01, -3.2D-01, -5.6D-01, r^2= 1.3D+01
   Bfn.  Coefficient  Atom+Function         Bfn.  Coefficient  Atom+Function  
  ----- ------------  ---------------      ----- ------------  ---------------
     4      4.734224  1 C  s                 15     -3.173274  1 C  px         
    69      2.891318  2 C  pz               223     -2.618109  5 H  s          
    14      2.289462  1 C  pz                16      2.195370  1 C  py         
    17      2.145520  1 C  pz                 5     -1.870302  1 C  s          
   125      1.870204  3 O  px                59     -1.821348  2 C  s          

 Vector   48  Occ=0.000000D+00  E= 1.946998D-01
              MO Center=  9.4D-02, -8.8D-02, -2.5D-01, r^2= 1.6D+01
   Bfn.  Coefficient  Atom+Function         Bfn.  Coefficient  Atom+Function  
  ----- ------------  ---------------      ----- ------------  ---------------
     5     16.682305  1 C  s                 60     -8.681837  2 C  s          
   115     -7.889454  3 O  s                 17      7.775619  1 C  pz         
    69     -5.534223  2 C  pz               170     -5.502756  4 O  s          
   223      4.941915  5 H  s                127     -3.606343  3 O  pz         
    14     -3.384655  1 C  pz                31      3.346397  1 C  dxy        

 Vector   49  Occ=0.000000D+00  E= 2.053181D-01
              MO Center= -4.4D-01,  5.3D-02,  6.7D-01, r^2= 1.4D+01
   Bfn.  Coefficient  Atom+Function         Bfn.  Coefficient  Atom+Function  
  ----- ------------  ---------------      ----- ------------  ---------------
   170      8.255611  4 O  s                 59     -6.998497  2 C  s          
     5     -6.130871  1 C  s                115     -3.358968  3 O  s          
   223      3.083637  5 H  s                 34     -3.057957  1 C  dyz        
    71     -2.794933  2 C  py                16      2.366816  1 C  py         
    60      2.096249  2 C  s                250      2.092496  6 F  s          

 Vector   50  Occ=0.000000D+00  E= 2.122451D-01
              MO Center=  1.1D-01, -3.9D-01,  1.2D+00, r^2= 1.4D+01
   Bfn.  Coefficient  Atom+Function         Bfn.  Coefficient  Atom+Function  
  ----- ------------  ---------------      ----- ------------  ---------------
   170     -5.899485  4 O  s                  4      5.772565  1 C  s          
    60      5.653936  2 C  s                 59     -5.567621  2 C  s          
   115      4.419071  3 O  s                  5     -3.974042  1 C  s          
    69      3.101110  2 C  pz                70      2.569959  2 C  px         
    90     -2.518499  2 C  dzz               34      2.307674  1 C  dyz        

 Vector   51  Occ=0.000000D+00  E= 2.226113D-01
              MO Center= -4.6D-01, -5.9D-01,  1.4D+00, r^2= 1.5D+01
   Bfn.  Coefficient  Atom+Function         Bfn.  Coefficient  Atom+Function  
  ----- ------------  ---------------      ----- ------------  ---------------
    59     24.042793  2 C  s                  5     16.423937  1 C  s          
    60    -16.442085  2 C  s                  4    -11.675226  1 C  s          
   223     -8.917352  5 H  s                 90      6.837105  2 C  dzz        
    85      6.296602  2 C  dxx              250     -5.337477  6 F  s          
   305     -5.333604  7 F  s                 88      5.062149  2 C  dyy        

 Vector   52  Occ=0.000000D+00  E= 2.293403D-01
              MO Center= -7.4D-03,  1.7D-01,  1.7D+00, r^2= 1.4D+01
   Bfn.  Coefficient  Atom+Function         Bfn.  Coefficient  Atom+Function  
  ----- ------------  ---------------      ----- ------------  ---------------
     5     18.222350  1 C  s                  4      9.444244  1 C  s          
   115     -8.470400  3 O  s                 72      5.902767  2 C  pz         
   170     -5.080477  4 O  s                223      4.765046  5 H  s          
    59     -4.703092  2 C  s                224     -4.337994  5 H  s          
    60     -3.374052  2 C  s                 88     -2.823941  2 C  dyy        

 Vector   53  Occ=0.000000D+00  E= 2.392738D-01
              MO Center=  1.8D-01,  1.8D-01,  1.5D+00, r^2= 1.2D+01
   Bfn.  Coefficient  Atom+Function         Bfn.  Coefficient  Atom+Function  
  ----- ------------  ---------------      ----- ------------  ---------------
     5      4.476189  1 C  s                 15      3.032344  1 C  px         
    67     -2.689696  2 C  px                59      2.499815  2 C  s          
   231      2.464203  5 H  px               223     -2.282469  5 H  s          
    70     -2.232484  2 C  px               250     -2.049498  6 F  s          
   170     -2.015380  4 O  s                 60     -1.793467  2 C  s          

 Vector   54  Occ=0.000000D+00  E= 2.470225D-01
              MO Center=  5.8D-02,  2.3D-01,  1.9D-01, r^2= 1.2D+01
   Bfn.  Coefficient  Atom+Function         Bfn.  Coefficient  Atom+Function  
  ----- ------------  ---------------      ----- ------------  ---------------
   115     11.772928  3 O  s                170     10.967011  4 O  s          
    14      7.861889  1 C  pz                33     -7.553817  1 C  dyy        
   223     -7.498004  5 H  s                 30     -5.466972  1 C  dxx        
    69      4.395848  2 C  pz                68      3.968901  2 C  py         
    60      3.846775  2 C  s                127      3.811495  3 O  pz         

 Vector   55  Occ=0.000000D+00  E= 2.667689D-01
              MO Center=  4.8D-02,  3.5D-01,  1.3D+00, r^2= 9.2D+00
   Bfn.  Coefficient  Atom+Function         Bfn.  Coefficient  Atom+Function  
  ----- ------------  ---------------      ----- ------------  ---------------
    60     14.661194  2 C  s                  5    -12.999106  1 C  s          
   170      4.468874  4 O  s                 59      3.988682  2 C  s          
   115      3.866893  3 O  s                 85     -3.258889  2 C  dxx        
    88     -3.072807  2 C  dyy                4     -2.592182  1 C  s          
    90     -2.584480  2 C  dzz              233      2.592436  5 H  pz         

 Vector   56  Occ=0.000000D+00  E= 2.764827D-01
              MO Center=  1.3D-02,  2.7D-01,  1.2D+00, r^2= 1.3D+01
   Bfn.  Coefficient  Atom+Function         Bfn.  Coefficient  Atom+Function  
  ----- ------------  ---------------      ----- ------------  ---------------
    59     26.657269  2 C  s                  4    -19.233156  1 C  s          
    60    -15.506318  2 C  s                223    -14.221899  5 H  s          
   115     10.282073  3 O  s                 90      9.032169  2 C  dzz        
    88      7.933398  2 C  dyy               14     -7.382655  1 C  pz         
    69     -6.556923  2 C  pz                68      6.511173  2 C  py         

 Vector   57  Occ=0.000000D+00  E= 2.843729D-01
              MO Center= -5.7D-02, -1.2D-01,  8.4D-01, r^2= 1.0D+01
   Bfn.  Coefficient  Atom+Function         Bfn.  Coefficient  Atom+Function  
  ----- ------------  ---------------      ----- ------------  ---------------
     4     12.260523  1 C  s                 69      6.147610  2 C  pz         
    14      4.569657  1 C  pz               223     -4.559269  5 H  s          
    68      4.214595  2 C  py               115     -4.111251  3 O  s          
   250     -4.100480  6 F  s                  5      3.826359  1 C  s          
    90     -3.715021  2 C  dzz               59     -3.274011  2 C  s          

 Vector   58  Occ=0.000000D+00  E= 2.948330D-01
              MO Center=  3.7D-02, -3.4D-01,  1.4D+00, r^2= 1.1D+01
   Bfn.  Coefficient  Atom+Function         Bfn.  Coefficient  Atom+Function  
  ----- ------------  ---------------      ----- ------------  ---------------
   305     10.139556  7 F  s                  5     -7.932615  1 C  s          
     4     -5.394757  1 C  s                 60      4.984777  2 C  s          
   250     -4.570785  6 F  s                 88     -4.081436  2 C  dyy        
    67     -3.342862  2 C  px                59     -2.967141  2 C  s          
    69     -2.831993  2 C  pz               315     -2.709605  7 F  px         

 Vector   59  Occ=0.000000D+00  E= 3.048180D-01
              MO Center=  5.1D-02,  9.1D-02,  6.6D-01, r^2= 9.3D+00
   Bfn.  Coefficient  Atom+Function         Bfn.  Coefficient  Atom+Function  
  ----- ------------  ---------------      ----- ------------  ---------------
     4     14.893572  1 C  s                223     -9.119719  5 H  s          
    69      8.353364  2 C  pz                14      7.446853  1 C  pz         
    35      6.441942  1 C  dzz               68      5.300119  2 C  py         
    59     -5.168809  2 C  s                170     -4.475761  4 O  s          
   115     -4.372338  3 O  s                 30      4.133667  1 C  dxx        

 Vector   60  Occ=0.000000D+00  E= 3.094687D-01
              MO Center=  2.0D-02, -2.9D-01,  6.8D-01, r^2= 1.1D+01
   Bfn.  Coefficient  Atom+Function         Bfn.  Coefficient  Atom+Function  
  ----- ------------  ---------------      ----- ------------  ---------------
     4     23.637723  1 C  s                 69     11.869275  2 C  pz         
   223    -11.728848  5 H  s                 14      9.780362  1 C  pz         
    59     -8.908073  2 C  s                 90     -7.895800  2 C  dzz        
    68      6.808844  2 C  py               170     -6.343946  4 O  s          
   305      6.079420  7 F  s                 35      5.750042  1 C  dzz        

 Vector   61  Occ=0.000000D+00  E= 3.133079D-01
              MO Center= -5.4D-02,  2.0D-01,  4.8D-02, r^2= 1.0D+01
   Bfn.  Coefficient  Atom+Function         Bfn.  Coefficient  Atom+Function  
  ----- ------------  ---------------      ----- ------------  ---------------
     4     15.540924  1 C  s                 59    -11.310645  2 C  s          
    35     10.361005  1 C  dzz                5     -9.115494  1 C  s          
    14      8.818470  1 C  pz                69      8.271714  2 C  pz         
   223     -6.581301  5 H  s                170     -6.514495  4 O  s          
    60      5.037412  2 C  s                 30      4.675516  1 C  dxx        

 Vector   62  Occ=0.000000D+00  E= 3.396186D-01
              MO Center= -3.2D-02, -6.0D-02,  1.4D+00, r^2= 1.1D+01
   Bfn.  Coefficient  Atom+Function         Bfn.  Coefficient  Atom+Function  
  ----- ------------  ---------------      ----- ------------  ---------------
   223     48.696252  5 H  s                 59    -38.158834  2 C  s          
    68    -20.769267  2 C  py                 5    -14.070255  1 C  s          
    60     13.595340  2 C  s                232    -11.824812  5 H  py         
    88     -9.675741  2 C  dyy               67     -8.700189  2 C  px         
   170      7.640039  4 O  s                 90     -6.207375  2 C  dzz        

 Vector   63  Occ=0.000000D+00  E= 3.435468D-01
              MO Center= -7.8D-02,  1.9D-01,  9.1D-01, r^2= 1.2D+01
   Bfn.  Coefficient  Atom+Function         Bfn.  Coefficient  Atom+Function  
  ----- ------------  ---------------      ----- ------------  ---------------
    59     43.016304  2 C  s                223    -28.813117  5 H  s          
     4    -21.174534  1 C  s                170     13.994370  4 O  s          
   115     12.076662  3 O  s                 60    -11.059439  2 C  s          
    88     10.119287  2 C  dyy               68      9.608713  2 C  py         
    35     -8.046648  1 C  dzz               85      7.768483  2 C  dxx        

 Vector   64  Occ=0.000000D+00  E= 3.655467D-01
              MO Center=  1.6D-01,  2.4D-01,  5.0D-01, r^2= 1.0D+01
   Bfn.  Coefficient  Atom+Function         Bfn.  Coefficient  Atom+Function  
  ----- ------------  ---------------      ----- ------------  ---------------
     5     32.227218  1 C  s                 60    -27.433091  2 C  s          
    59    -23.882317  2 C  s                  4     15.619771  1 C  s          
   223     14.891785  5 H  s                115    -12.293916  3 O  s          
   170     -6.565094  4 O  s                 72      5.618565  2 C  pz         
    35      3.873212  1 C  dzz              232     -3.817556  5 H  py         

 Vector   65  Occ=0.000000D+00  E= 3.826540D-01
              MO Center= -2.4D-01, -3.6D-01,  1.3D+00, r^2= 1.1D+01
   Bfn.  Coefficient  Atom+Function         Bfn.  Coefficient  Atom+Function  
  ----- ------------  ---------------      ----- ------------  ---------------
    59     38.812424  2 C  s                223    -27.154028  5 H  s          
     5     25.361776  1 C  s                 60    -21.135150  2 C  s          
   250    -18.161268  6 F  s                305    -16.287129  7 F  s          
    85     15.664351  2 C  dxx               90     13.296654  2 C  dzz        
    88     12.409354  2 C  dyy              115     -9.505987  3 O  s          

 Vector   66  Occ=0.000000D+00  E= 3.914244D-01
              MO Center=  2.8D-01, -4.8D-02,  1.0D+00, r^2= 8.4D+00
   Bfn.  Coefficient  Atom+Function         Bfn.  Coefficient  Atom+Function  
  ----- ------------  ---------------      ----- ------------  ---------------
   115      9.249522  3 O  s                 59     -8.335612  2 C  s          
   305      7.068270  7 F  s                 14      4.711072  1 C  pz         
    33     -4.488152  1 C  dyy               60     -3.848207  2 C  s          
    87      3.778593  2 C  dxz              170      3.408620  4 O  s          
    69      3.208669  2 C  pz                88     -2.364292  2 C  dyy        

 Vector   67  Occ=0.000000D+00  E= 3.968655D-01
              MO Center= -2.4D-01,  1.7D-01,  1.3D+00, r^2= 8.9D+00
   Bfn.  Coefficient  Atom+Function         Bfn.  Coefficient  Atom+Function  
  ----- ------------  ---------------      ----- ------------  ---------------
     4      6.712893  1 C  s                115     -6.706018  3 O  s          
   250     -5.653154  6 F  s                 86      4.988109  2 C  dxy        
    87      4.682283  2 C  dxz              231     -4.514627  5 H  px         
    31      3.347153  1 C  dxy              170     -3.164115  4 O  s          
   305      3.134459  7 F  s                 89     -2.945990  2 C  dyz        

 Vector   68  Occ=0.000000D+00  E= 4.098007D-01
              MO Center= -3.1D-01, -5.1D-02,  1.3D+00, r^2= 9.4D+00
   Bfn.  Coefficient  Atom+Function         Bfn.  Coefficient  Atom+Function  
  ----- ------------  ---------------      ----- ------------  ---------------
    59     13.883317  2 C  s                250    -11.792984  6 F  s          
   223     -9.888439  5 H  s                 89     -8.637454  2 C  dyz        
    87     -8.215444  2 C  dxz                5     -7.536037  1 C  s          
   170      7.391931  4 O  s                 60      5.527902  2 C  s          
   233      5.471186  5 H  pz                68      4.582795  2 C  py         

 Vector   69  Occ=0.000000D+00  E= 4.225615D-01
              MO Center= -5.4D-02,  3.6D-02,  8.8D-01, r^2= 9.2D+00
   Bfn.  Coefficient  Atom+Function         Bfn.  Coefficient  Atom+Function  
  ----- ------------  ---------------      ----- ------------  ---------------
   250     10.319523  6 F  s                 87      8.225916  2 C  dxz        
    12      7.429626  1 C  px                32      6.042536  1 C  dxz        
   305     -5.949747  7 F  s                223     -5.482528  5 H  s          
    59      5.373528  2 C  s                 60     -4.809673  2 C  s          
    34      4.681237  1 C  dyz               67      4.498902  2 C  px         

 Vector   70  Occ=0.000000D+00  E= 4.337147D-01
              MO Center=  1.0D-01,  3.2D-01,  5.3D-01, r^2= 1.0D+01
   Bfn.  Coefficient  Atom+Function         Bfn.  Coefficient  Atom+Function  
  ----- ------------  ---------------      ----- ------------  ---------------
   305     11.420628  7 F  s                 60     -9.733088  2 C  s          
     5      9.445725  1 C  s                170     -8.611735  4 O  s          
    89      7.264115  2 C  dyz               34      6.566103  1 C  dyz        
    86      6.048816  2 C  dxy               88     -4.828769  2 C  dyy        
    33      4.744732  1 C  dyy              250      4.191827  6 F  s          

 Vector   71  Occ=0.000000D+00  E= 4.371423D-01
              MO Center=  1.1D-01,  2.1D-01,  7.4D-01, r^2= 1.0D+01
   Bfn.  Coefficient  Atom+Function         Bfn.  Coefficient  Atom+Function  
  ----- ------------  ---------------      ----- ------------  ---------------
    89     11.151076  2 C  dyz               34      9.204673  1 C  dyz        
     5      8.861457  1 C  s                 60     -8.364174  2 C  s          
   170     -7.567402  4 O  s                305      7.398885  7 F  s          
    59      6.969311  2 C  s                 67     -5.941662  2 C  px         
   223     -5.864100  5 H  s                 13      5.736140  1 C  py         

 Vector   72  Occ=0.000000D+00  E= 4.588007D-01
              MO Center=  7.9D-02,  6.9D-02, -2.7D-01, r^2= 9.3D+00
   Bfn.  Coefficient  Atom+Function         Bfn.  Coefficient  Atom+Function  
  ----- ------------  ---------------      ----- ------------  ---------------
    13     13.458308  1 C  py               170     11.734893  4 O  s          
    34    -11.614483  1 C  dyz                4     -9.266268  1 C  s          
   115     -8.103052  3 O  s                223      7.176606  5 H  s          
    12      6.683965  1 C  px                32     -6.661839  1 C  dxz        
   169      6.589453  4 O  s                305      4.484296  7 F  s          

 Vector   73  Occ=0.000000D+00  E= 4.696194D-01
              MO Center= -9.9D-02,  3.4D-03,  1.3D+00, r^2= 9.5D+00
   Bfn.  Coefficient  Atom+Function         Bfn.  Coefficient  Atom+Function  
  ----- ------------  ---------------      ----- ------------  ---------------
     4     19.687431  1 C  s                 59    -16.251017  2 C  s          
   115    -11.715763  3 O  s                223     11.693692  5 H  s          
    31     11.319926  1 C  dxy              170    -10.096408  4 O  s          
    33      9.683541  1 C  dyy                5      9.528580  1 C  s          
    69     -9.212755  2 C  pz                88     -7.726655  2 C  dyy        

 Vector   74  Occ=0.000000D+00  E= 4.823497D-01
              MO Center= -2.8D-02,  3.4D-02,  6.6D-01, r^2= 9.1D+00
   Bfn.  Coefficient  Atom+Function         Bfn.  Coefficient  Atom+Function  
  ----- ------------  ---------------      ----- ------------  ---------------
   223     43.904432  5 H  s                 59    -28.997643  2 C  s          
     4     14.002912  1 C  s                 89    -13.185294  2 C  dyz        
    34    -10.787397  1 C  dyz               13    -10.069491  1 C  py         
   232     -8.952812  5 H  py               115     -8.535246  3 O  s          
    90     -8.177453  2 C  dzz               88     -7.147235  2 C  dyy        

 Vector   75  Occ=0.000000D+00  E= 4.971105D-01
              MO Center= -7.5D-02, -2.6D-01,  2.7D-01, r^2= 7.4D+00
   Bfn.  Coefficient  Atom+Function         Bfn.  Coefficient  Atom+Function  
  ----- ------------  ---------------      ----- ------------  ---------------
    67     12.716594  2 C  px               223     11.909990  5 H  s          
    59    -10.156574  2 C  s                 12     -8.968138  1 C  px         
    32     -7.042388  1 C  dxz               68     -7.004264  2 C  py         
    86     -6.801938  2 C  dxy               87     -6.796744  2 C  dxz        
     4      5.914035  1 C  s                250      4.754293  6 F  s          

 Vector   76  Occ=0.000000D+00  E= 5.326381D-01
              MO Center=  1.8D-01,  5.6D-01,  6.2D-01, r^2= 8.7D+00
   Bfn.  Coefficient  Atom+Function         Bfn.  Coefficient  Atom+Function  
  ----- ------------  ---------------      ----- ------------  ---------------
     4     34.902102  1 C  s                 69     13.600815  2 C  pz         
   115    -12.668687  3 O  s                 31     12.407822  1 C  dxy        
   170    -11.666647  4 O  s                  5     11.224353  1 C  s          
    33     11.151407  1 C  dyy              223     -9.553303  5 H  s          
    86     -7.258169  2 C  dxy               13      7.082499  1 C  py         

 Vector   77  Occ=0.000000D+00  E= 5.616505D-01
              MO Center= -1.6D-01, -1.9D-01, -2.3D-01, r^2= 8.7D+00
   Bfn.  Coefficient  Atom+Function         Bfn.  Coefficient  Atom+Function  
  ----- ------------  ---------------      ----- ------------  ---------------
     4     49.793345  1 C  s                 59    -31.003293  2 C  s          
    14     27.227935  1 C  pz                69     21.944758  2 C  pz         
    68     17.545647  2 C  py               223    -17.508949  5 H  s          
    35      8.400317  1 C  dzz               90     -7.573076  2 C  dzz        
    86      6.717754  2 C  dxy               67      6.621869  2 C  px         

 Vector   78  Occ=0.000000D+00  E= 5.903305D-01
              MO Center=  4.4D-02, -4.5D-02,  4.0D-01, r^2= 7.7D+00
   Bfn.  Coefficient  Atom+Function         Bfn.  Coefficient  Atom+Function  
  ----- ------------  ---------------      ----- ------------  ---------------
   223     27.714783  5 H  s                 69    -12.106576  2 C  pz         
    68    -11.691753  2 C  py               170      9.104532  4 O  s          
   115      7.703499  3 O  s                 30     -6.915087  1 C  dxx        
    14     -6.867048  1 C  pz                33     -6.729448  1 C  dyy        
    59     -6.688576  2 C  s                 88     -6.390735  2 C  dyy        

 Vector   79  Occ=0.000000D+00  E= 6.013347D-01
              MO Center= -1.1D-01, -4.5D-01,  3.0D-01, r^2= 7.6D+00
   Bfn.  Coefficient  Atom+Function         Bfn.  Coefficient  Atom+Function  
  ----- ------------  ---------------      ----- ------------  ---------------
    59     45.442560  2 C  s                223    -22.925417  5 H  s          
     4    -22.747191  1 C  s                 14    -19.396126  1 C  pz         
    69    -12.846083  2 C  pz                90     12.308010  2 C  dzz        
    60    -11.290020  2 C  s                 88     10.230070  2 C  dyy        
    35    -10.151924  1 C  dzz                5      8.746922  1 C  s          

 Vector   80  Occ=0.000000D+00  E= 6.097769D-01
              MO Center=  2.4D-01,  2.8D-01,  4.3D-01, r^2= 7.8D+00
   Bfn.  Coefficient  Atom+Function         Bfn.  Coefficient  Atom+Function  
  ----- ------------  ---------------      ----- ------------  ---------------
    59     48.593709  2 C  s                223    -41.855762  5 H  s          
     4    -17.944434  1 C  s                 68     16.194489  2 C  py         
    90     11.404816  2 C  dzz               85     11.243883  2 C  dxx        
    14    -10.132796  1 C  pz                88      9.727137  2 C  dyy        
   232      8.837698  5 H  py                60     -8.745355  2 C  s          

 Vector   81  Occ=0.000000D+00  E= 6.177242D-01
              MO Center= -1.1D-01, -3.4D-01,  6.4D-01, r^2= 8.6D+00
   Bfn.  Coefficient  Atom+Function         Bfn.  Coefficient  Atom+Function  
  ----- ------------  ---------------      ----- ------------  ---------------
    59     58.243303  2 C  s                223    -36.284934  5 H  s          
     4    -31.901118  1 C  s                 14    -20.490641  1 C  pz         
    90     16.451817  2 C  dzz               60    -15.109386  2 C  s          
    68     14.718758  2 C  py                88     14.272795  2 C  dyy        
    69    -12.879038  2 C  pz                85     11.208931  2 C  dxx        

 Vector   82  Occ=0.000000D+00  E= 6.287549D-01
              MO Center=  6.9D-02,  5.2D-01,  1.4D+00, r^2= 7.3D+00
   Bfn.  Coefficient  Atom+Function         Bfn.  Coefficient  Atom+Function  
  ----- ------------  ---------------      ----- ------------  ---------------
   223    -34.755289  5 H  s                 59     33.624089  2 C  s          
    69     13.654082  2 C  pz                 4     12.551322  1 C  s          
    68     11.278074  2 C  py               232      8.171693  5 H  py         
    89      5.155562  2 C  dyz                5      3.997944  1 C  s          
   233      3.980876  5 H  pz               250     -3.875868  6 F  s          

 Vector   83  Occ=0.000000D+00  E= 6.387857D-01
              MO Center=  2.2D-01,  3.0D-02,  3.0D-01, r^2= 7.0D+00
   Bfn.  Coefficient  Atom+Function         Bfn.  Coefficient  Atom+Function  
  ----- ------------  ---------------      ----- ------------  ---------------
    59     18.798391  2 C  s                223    -12.358581  5 H  s          
     4     -6.317093  1 C  s                 14     -4.223311  1 C  pz         
    85      3.860407  2 C  dxx               68      3.639156  2 C  py         
    90      3.413700  2 C  dzz              305     -2.914169  7 F  s          
     5      2.729892  1 C  s                 60     -2.721941  2 C  s          

 Vector   84  Occ=0.000000D+00  E= 6.572424D-01
              MO Center= -1.2D-01, -2.9D-02,  2.0D-01, r^2= 7.0D+00
   Bfn.  Coefficient  Atom+Function         Bfn.  Coefficient  Atom+Function  
  ----- ------------  ---------------      ----- ------------  ---------------
    59     39.393181  2 C  s                223    -34.691706  5 H  s          
    88      9.717315  2 C  dyy               68      8.043224  2 C  py         
   305     -7.731099  7 F  s                  5      7.115171  1 C  s          
    60     -6.962745  2 C  s                 67      6.549580  2 C  px         
    90      6.533129  2 C  dzz              232      6.420868  5 H  py         

 Vector   85  Occ=0.000000D+00  E= 6.716089D-01
              MO Center=  3.3D-01,  2.7D-01, -5.8D-04, r^2= 9.3D+00
   Bfn.  Coefficient  Atom+Function         Bfn.  Coefficient  Atom+Function  
  ----- ------------  ---------------      ----- ------------  ---------------
    68     11.482325  2 C  py               223    -10.716676  5 H  s          
    59     10.555438  2 C  s                  4      8.589279  1 C  s          
   115     -8.444420  3 O  s                169     -7.642252  4 O  s          
    69      5.483922  2 C  pz                 5      5.172179  1 C  s          
   170      4.617614  4 O  s                 34     -4.431635  1 C  dyz        

 Vector   86  Occ=0.000000D+00  E= 6.765062D-01
              MO Center= -4.2D-02,  3.2D-02, -1.6D-01, r^2= 7.7D+00
   Bfn.  Coefficient  Atom+Function         Bfn.  Coefficient  Atom+Function  
  ----- ------------  ---------------      ----- ------------  ---------------
   223     19.389957  5 H  s                 59    -10.347540  2 C  s          
    68     -8.090633  2 C  py               170      7.069673  4 O  s          
     4     -6.327779  1 C  s                 69     -5.838312  2 C  pz         
    88     -5.443671  2 C  dyy              115     -4.068336  3 O  s          
    32     -3.351487  1 C  dxz              231     -2.829578  5 H  px         

 Vector   87  Occ=0.000000D+00  E= 6.792782D-01
              MO Center= -1.9D-01, -1.4D-01, -3.0D-01, r^2= 8.6D+00
   Bfn.  Coefficient  Atom+Function         Bfn.  Coefficient  Atom+Function  
  ----- ------------  ---------------      ----- ------------  ---------------
     4     26.526835  1 C  s                 59    -23.108377  2 C  s          
   170    -14.269608  4 O  s                 69     13.902035  2 C  pz         
    14     12.350856  1 C  pz                35     10.765832  1 C  dzz        
   223     -8.323215  5 H  s                115     -8.217375  3 O  s          
    33      7.814346  1 C  dyy               30      6.260076  1 C  dxx        

 Vector   88  Occ=0.000000D+00  E= 6.898987D-01
              MO Center= -1.6D-01, -7.3D-02, -2.1D-02, r^2= 8.1D+00
   Bfn.  Coefficient  Atom+Function         Bfn.  Coefficient  Atom+Function  
  ----- ------------  ---------------      ----- ------------  ---------------
    59     22.022219  2 C  s                223    -11.422018  5 H  s          
    35     -9.336478  1 C  dzz              114     -9.201572  3 O  s          
     4     -8.965616  1 C  s                115      8.729978  3 O  s          
     5      7.387863  1 C  s                 33     -7.166557  1 C  dyy        
    30     -6.039635  1 C  dxx               68      4.781760  2 C  py         

 Vector   89  Occ=0.000000D+00  E= 7.116622D-01
              MO Center=  2.6D-01, -2.7D-02,  7.5D-01, r^2= 7.9D+00
   Bfn.  Coefficient  Atom+Function         Bfn.  Coefficient  Atom+Function  
  ----- ------------  ---------------      ----- ------------  ---------------
    68     18.134864  2 C  py                60      9.948821  2 C  s          
   223     -9.899434  5 H  s                  4      9.312313  1 C  s          
     5     -8.995577  1 C  s                 67      8.802292  2 C  px         
    85     -8.216206  2 C  dxx               13     -7.669452  1 C  py         
    14      7.613045  1 C  pz                69      7.640394  2 C  pz         

 Vector   90  Occ=0.000000D+00  E= 7.293794D-01
              MO Center= -1.4D-01,  1.4D-01,  5.3D-01, r^2= 7.4D+00
   Bfn.  Coefficient  Atom+Function         Bfn.  Coefficient  Atom+Function  
  ----- ------------  ---------------      ----- ------------  ---------------
[...]
  ----- ------------  ---------------      ----- ------------  ---------------
    59     17.193500  2 C  s                 69    -15.673748  2 C  pz         
    14    -12.237589  1 C  pz                 4    -12.171127  1 C  s          
   256     10.284673  6 F  pz               311     10.159790  7 F  pz         
   222     -7.324878  5 H  s                254      7.205853  6 F  px         
   114      6.713806  3 O  s                 68     -6.416541  2 C  py         

 Vector  349  Occ=0.000000D+00  E= 1.921840D+01
              MO Center= -2.3D-01, -5.0D-01,  1.2D-01, r^2= 3.7D+00
   Bfn.  Coefficient  Atom+Function         Bfn.  Coefficient  Atom+Function  
  ----- ------------  ---------------      ----- ------------  ---------------
     4     39.524825  1 C  s                 59     16.672862  2 C  s          
    53    -14.270380  1 C  fyyz              50    -13.929015  1 C  fxyz       
    31     11.946118  1 C  dxy              222    -10.765053  5 H  s          
    33      9.821916  1 C  dyy               14     -9.152133  1 C  pz         
   167     -8.873211  4 O  s                175     -8.676464  4 O  py         

 Vector  350  Occ=0.000000D+00  E= 2.106609D+01
              MO Center= -7.1D-02, -6.6D-01,  2.1D+00, r^2= 2.2D+00
   Bfn.  Coefficient  Atom+Function         Bfn.  Coefficient  Atom+Function  
  ----- ------------  ---------------      ----- ------------  ---------------
   254      9.464157  6 F  px               310     -8.589915  7 F  py         
   309      7.201825  7 F  px               311      6.608558  7 F  pz         
   302     -6.229493  7 F  s                 67      5.972672  2 C  px         
   313     -5.526654  7 F  py               256     -5.115845  6 F  pz         
   247      4.838342  6 F  s                257      4.464754  6 F  px         

 Vector  351  Occ=0.000000D+00  E= 2.116653D+01
              MO Center= -4.9D-01, -5.1D-01,  2.0D+00, r^2= 2.2D+00
   Bfn.  Coefficient  Atom+Function         Bfn.  Coefficient  Atom+Function  
  ----- ------------  ---------------      ----- ------------  ---------------
   223     14.814583  5 H  s                 68    -11.174540  2 C  py         
   254    -10.148473  6 F  px                59      8.638354  2 C  s          
   257     -8.294551  6 F  px               247     -7.241905  6 F  s          
   256      6.242610  6 F  pz               302     -6.187959  7 F  s          
   169     -6.002284  4 O  s                310     -5.885119  7 F  py         

 Vector  352  Occ=0.000000D+00  E= 2.313580D+01
              MO Center= -2.9D-01, -5.4D-01,  2.0D+00, r^2= 1.7D+00
   Bfn.  Coefficient  Atom+Function         Bfn.  Coefficient  Atom+Function  
  ----- ------------  ---------------      ----- ------------  ---------------
   249     11.903871  6 F  s                304    -10.741912  7 F  s          
    67     -5.772771  2 C  px               254     -5.342950  6 F  px         
   310      4.017247  7 F  py               333      3.952867  7 F  dyy        
   272     -3.828827  6 F  dyy              275     -3.785707  6 F  dxx        
   274     -3.761628  6 F  dzz              324      3.705645  7 F  dxx        

 Vector  353  Occ=0.000000D+00  E= 2.366427D+01
              MO Center= -2.5D-01, -5.5D-01,  2.0D+00, r^2= 1.9D+00
   Bfn.  Coefficient  Atom+Function         Bfn.  Coefficient  Atom+Function  
  ----- ------------  ---------------      ----- ------------  ---------------
   223     25.865814  5 H  s                 68    -16.522446  2 C  py         
   304      9.819869  7 F  s                249      9.587383  6 F  s          
    88     -8.858529  2 C  dyy              169     -7.793245  4 O  s          
   257     -7.104501  6 F  px                 4      6.902123  1 C  s          
    90     -6.611656  2 C  dzz               67     -6.419631  2 C  px         

 Vector  354  Occ=0.000000D+00  E= 2.826701D+01
              MO Center= -1.5D-02,  1.5D-02,  4.7D-01, r^2= 2.1D+00
   Bfn.  Coefficient  Atom+Function         Bfn.  Coefficient  Atom+Function  
  ----- ------------  ---------------      ----- ------------  ---------------
     2     25.804166  1 C  s                 57     17.042137  2 C  s          
   169    -13.883607  4 O  s                  1     12.715645  1 C  s          
   114    -10.848320  3 O  s                 33     -9.815671  1 C  dyy        
    69     -9.472185  2 C  pz                 4     -9.268301  1 C  s          
    56      8.366255  2 C  s                170      8.049850  4 O  s          

 Vector  355  Occ=0.000000D+00  E= 2.867237D+01
              MO Center= -1.1D-02,  6.1D-02,  1.0D+00, r^2= 1.9D+00
   Bfn.  Coefficient  Atom+Function         Bfn.  Coefficient  Atom+Function  
  ----- ------------  ---------------      ----- ------------  ---------------
    57     25.950557  2 C  s                169     17.656884  4 O  s          
     2    -16.999670  1 C  s                 53     12.848439  1 C  fyyz       
    56     12.783918  2 C  s                 50     12.690598  1 C  fxyz       
   222    -11.336861  5 H  s                 59    -10.523657  2 C  s          
    25     -8.581119  1 C  dxy                1     -8.381267  1 C  s          


   alpha - beta orbital overlaps 
   ----------------------------- 


   alpha      1      2      3      4      5      6      7      8      9     10
    beta      1      2      3      4      5      6      7      8      9     10
 overlap   1.000  1.000  1.000  1.000  1.000  1.000  1.000  1.000  1.000  1.000


   alpha     11     12     13     14     15     16     17     18     19     20
    beta     11     12     13     14     15     16     17     18     19     20
 overlap   0.998  0.997  0.986  0.984  1.000  0.991  0.999  0.989  0.996  0.996


   alpha     21     22     23     24     25     26     27     28     29     30
    beta     21     22     23     24     25     26     27     28     29     30
 overlap   0.988  0.998  0.737  0.737  1.000  0.999  0.994  0.978  0.972  0.993


   alpha     31     32     33     34     35     36     37     38     39     40
    beta     31     32     33     34     35     36     37     38     39     40
 overlap   0.998  0.969  0.977  0.993  0.999  0.997  0.999  0.989  0.983  0.986


   alpha     41     42     43     44     45     46     47     48     49     50
    beta     42     41     43     44     45     46     47     48     49     50
 overlap   0.884  0.889  0.997  0.986  0.986  0.888  0.882  0.991  0.983  0.984


   alpha     51     52     53     54     55     56     57     58     59     60
    beta     51     52     53     54     55     56     57     58     59     60
 overlap   0.999  0.998  0.999  0.997  0.995  0.999  0.999  0.997  0.995  0.997


   alpha     61     62     63     64     65     66     67     68     69     70
    beta     61     62     63     64     65     66     67     68     69     70
 overlap   0.993  0.999  0.998  0.996  0.993  0.938  0.942  0.996  0.995  0.987


   alpha     71     72     73     74     75     76     77     78     79     80
    beta     71     72     73     74     75     76     77     78     79     80
 overlap   0.986  0.996  0.999  0.995  0.998  0.998  0.997  0.998  0.999  0.999


   alpha     81     82     83     84     85     86     87     88     89     90
    beta     81     82     83     84     85     86     87     88     89     90
 overlap   0.999  0.999  0.998  0.998  0.978  0.990  0.984  0.996  0.997  0.995


   alpha     91     92     93     94     95     96     97     98     99    100
    beta     91     92     93     94     95     96     97     98     99    100
 overlap   0.996  0.992  0.999  1.000  0.998  0.998  1.000  0.998  0.998  0.997


   alpha    101    102    103    104    105    106    107    108    109    110
    beta    101    102    103    104    105    106    107    108    109    110
 overlap   0.994  0.993  0.999  0.999  0.984  0.983  0.999  0.999  0.998  0.998


   alpha    111    112    113    114    115    116    117    118    119    120
    beta    111    112    113    114    115    116    117    118    119    120
 overlap   0.953  0.765  0.806  0.998  0.998  0.999  1.000  0.998  0.999  0.998


   alpha    121    122    123    124    125    126    127    128    129    130
    beta    121    122    123    124    125    126    127    128    129    130
 overlap   0.998  0.997  0.995  0.995  0.998  0.999  1.000  0.999  0.999  1.000


   alpha    131    132    133    134    135    136    137    138    139    140
    beta    131    132    133    134    135    136    137    138    139    140
 overlap   0.999  0.999  0.999  0.991  0.986  0.992  0.993  0.991  0.998  0.999


   alpha    141    142    143    144    145    146    147    148    149    150
    beta    141    142    143    144    145    146    147    148    149    150
 overlap   0.998  0.995  0.994  0.992  0.994  0.998  0.999  0.999  0.999  0.998


   alpha    151    152    153    154    155    156    157    158    159    160
    beta    151    152    153    154    155    156    157    158    159    160
 overlap   0.997  0.998  0.999  0.961  0.961  0.997  0.996  0.997  0.984  0.983


   alpha    161    162    163    164    165    166    167    168    169    170
    beta    161    162    163    164    165    166    167    168    169    170
 overlap   0.987  0.984  0.999  0.993  0.996  0.979  0.982  0.999  0.994  0.791


   alpha    171    172    173    174    175    176    177    178    179    180
    beta    171    172    173    174    175    176    177    178    179    180
 overlap   0.795  0.991  0.994  1.000  0.995  0.992  0.991  0.994  0.995  0.988


   alpha    181    182    183    184    185    186    187    188    189    190
    beta    181    182    183    184    185    186    187    188    189    190
 overlap   0.938  0.938  0.998  0.996  0.997  0.977  0.975  0.995  0.995  0.998


   alpha    191    192    193    194    195    196    197    198    199    200
    beta    191    192    193    194    195    196    197    198    199    200
 overlap   0.996  0.996  0.984  0.982  0.997  0.999  0.999  1.000  1.000  0.999


   alpha    201    202    203    204    205    206    207    208    209    210
    beta    201    202    203    204    205    206    207    208    209    210
 overlap   0.999  0.985  0.986  0.998  0.986  0.996  0.989  0.998  0.999  0.997


   alpha    211    212    213    214    215    216    217    218    219    220
    beta    211    212    213    214    215    216    217    218    219    220
 overlap   0.997  0.985  0.968  0.976  0.999  0.999  0.999  0.999  0.979  0.979


   alpha    221    222    223    224    225    226    227    228    229    230
    beta    221    222    223    224    225    226    227    228    229    230
 overlap   0.996  0.997  0.999  0.999  0.999  0.998  0.992  0.992  0.999  0.999


   alpha    231    232    233    234    235    236    237    238    239    240
    beta    231    232    233    234    235    236    237    238    239    240
 overlap   1.000  0.999  0.997  0.996  0.999  0.997  0.997  0.999  0.999  0.979


   alpha    241    242    243    244    245    246    247    248    249    250
    beta    241    242    243    244    245    246    247    248    249    250
 overlap   0.980  0.998  1.000  1.000  1.000  1.000  0.999  0.997  0.993  0.995


   alpha    251    252    253    254    255    256    257    258    259    260
    beta    251    252    253    254    255    256    257    258    259    260
 overlap   1.000  1.000  1.000  1.000  1.000  1.000  0.993  0.993  0.996  0.989


   alpha    261    262    263    264    265    266    267    268    269    270
    beta    261    262    263    264    265    266    267    268    269    270
 overlap   0.991  1.000  0.998  0.999  0.998  0.991  0.868  0.871  0.999  0.996


   alpha    271    272    273    274    275    276    277    278    279    280
    beta    271    272    273    274    275    276    277    278    279    280
 overlap   0.997  0.976  0.977  0.995  0.994  0.995  0.996  0.996  0.998  0.988


   alpha    281    282    283    284    285    286    287    288    289    290
    beta    281    282    283    284    285    286    287    288    289    290
 overlap   0.812  0.819  0.957  0.948  0.978  0.960  0.930  0.946  0.962  0.971


   alpha    291    292    293    294    295    296    297    298    299    300
    beta    291    292    293    294    295    296    297    298    299    300
 overlap   0.984  0.984  0.994  0.987  0.992  0.981  0.980  0.997  0.997  0.999


   alpha    301    302    303    304    305    306    307    308    309    310
    beta    301    302    303    304    305    306    307    308    309    310
 overlap   0.999  1.000  0.999  0.999  1.000  1.000  1.000  1.000  1.000  1.000


   alpha    311    312    313    314    315    316    317    318    319    320
    beta    311    312    313    314    315    316    317    318    319    320
 overlap   1.000  0.998  0.966  0.967  0.999  1.000  1.000  1.000  1.000  1.000


   alpha    321    322    323    324    325    326    327    328    329    330
    beta    321    322    323    324    325    326    327    328    329    330
 overlap   1.000  0.986  0.986  1.000  1.000  1.000  1.000  1.000  1.000  0.883


   alpha    331    332    333    334    335    336    337    338    339    340
    beta    331    332    333    334    335    336    337    338    339    340
 overlap   0.883  1.000  1.000  1.000  1.000  1.000  1.000  1.000  1.000  1.000


   alpha    341    342    343    344    345    346    347    348    349    350
    beta    341    342    343    344    345    346    347    348    349    350
 overlap   0.999  0.998  0.998  1.000  1.000  1.000  1.000  1.000  1.000  1.000


   alpha    351    352    353    354    355
    beta    351    352    353    354    355
 overlap   1.000  1.000  1.000  1.000  1.000

     --------------------------
     Expectation value of S2:  
     --------------------------
      <S2> =      0.7525 (Exact =     0.7500)


 center of mass
 --------------
 x =  -0.19819370 y =  -0.41199978 z =   1.59902970

 moments of inertia (a.u.)
 ------------------
         650.593730726858         -22.671653755458          45.292327478712
         -22.671653755458         672.031261014701          88.368978041402
          45.292327478712          88.368978041402         358.339400879742

     Multipole analysis of the density
     ---------------------------------

     L   x y z        total         alpha         beta         nuclear
     -   - - -        -----         -----         ----         -------
     0   0 0 0     -0.000000    -24.000000    -23.000000     47.000000

     1   1 0 0      0.140103      4.382762      4.329049     -8.571708
     1   0 1 0      0.443639      9.075862      8.924340    -17.556563
     1   0 0 1      0.582884    -36.579414    -36.711590     73.873889

     2   2 0 0    -24.952178    -59.687159    -58.181898     92.916879
     2   1 1 0     -0.909918     -9.526638     -8.128595     16.745315
     2   1 0 1      0.823502     17.735214     17.637725    -34.549437
     2   0 2 0    -25.365196    -60.357860    -57.244072     92.236736
     2   0 1 1      2.093269     35.003368     34.920071    -67.830169
     2   0 0 2    -23.280930   -190.920338   -186.402201    354.041609


 Task  times  cpu:      105.6s     wall:      106.8s


                                NWChem Input Module
                                -------------------


 Summary of allocated global arrays
-----------------------------------
  No active global arrays


MA_summarize_allocated_blocks: starting scan ...
heap block 'gridpts', handle 76, address 0x1151c528:
	type of elements:		double precision
	number of elements:		33554432
	address of client space:	0x1151c580
	index for client space:		11715593
	total number of bytes:		268435552
MA_summarize_allocated_blocks: scan completed: 1 heap block, 0 stack blocks
MA usage statistics:

	allocation statistics:
					      heap	     stack
					      ----	     -----
	current number of blocks	         1	         0
	maximum number of blocks	        21	        53
	current total bytes		 268435552	         0
	maximum total bytes		 268984056	  40021128
	maximum total K-bytes		    268985	     40022
	maximum total M-bytes		       269	        41


                                     CITATION
                                     --------
                Please cite the following reference when publishing
                           results obtained with NWChem:

          E. Apra, E. J. Bylaska, W. A. de Jong, N. Govind, K. Kowalski,
       T. P. Straatsma, M. Valiev, H. J. J. van Dam, Y. Alexeev, J. Anchell,
       V. Anisimov, F. W. Aquino, R. Atta-Fynn, J. Autschbach, N. P. Bauman,
     J. C. Becca, D. E. Bernholdt, K. Bhaskaran-Nair, S. Bogatko, P. Borowski,
         J. Boschen, J. Brabec, A. Bruner, E. Cauet, Y. Chen, G. N. Chuev,
      C. J. Cramer, J. Daily, M. J. O. Deegan, T. H. Dunning Jr., M. Dupuis,
   K. G. Dyall, G. I. Fann, S. A. Fischer, A. Fonari, H. Fruchtl, L. Gagliardi,
      J. Garza, N. Gawande, S. Ghosh, K. Glaesemann, A. W. Gotz, J. Hammond,
       V. Helms, E. D. Hermes, K. Hirao, S. Hirata, M. Jacquelin, L. Jensen,
   B. G. Johnson, H. Jonsson, R. A. Kendall, M. Klemm, R. Kobayashi, V. Konkov,
      S. Krishnamoorthy, M. Krishnan, Z. Lin, R. D. Lins, R. J. Littlefield,
      A. J. Logsdail, K. Lopata, W. Ma, A. V. Marenich, J. Martin del Campo,
   D. Mejia-Rodriguez, J. E. Moore, J. M. Mullin, T. Nakajima, D. R. Nascimento,
    J. A. Nichols, P. J. Nichols, J. Nieplocha, A. Otero-de-la-Roza, B. Palmer,
    A. Panyala, T. Pirojsirikul, B. Peng, R. Peverati, J. Pittner, L. Pollack,
   R. M. Richard, P. Sadayappan, G. C. Schatz, W. A. Shelton, D. W. Silverstein,
   D. M. A. Smith, T. A. Soares, D. Song, M. Swart, H. L. Taylor, G. S. Thomas,
            V. Tipparaju, D. G. Truhlar, K. Tsemekhman, T. Van Voorhis,
      A. Vazquez-Mayagoitia, P. Verma, O. Villa, A. Vishnu, K. D. Vogiatzis,
        D. Wang, J. H. Weare, M. J. Williamson, T. L. Windus, K. Wolinski,
        A. T. Wong, Q. Wu, C. Yang, Q. Yu, M. Zacharias, Z. Zhang, Y. Zhao,
                                and R. J. Harrison
                        "NWChem: Past, present, and future
                         J. Chem. Phys. 152, 184102 (2020)
                               doi:10.1063/5.0004997

                                      AUTHORS
                                      -------
  E. Apra, E. J. Bylaska, N. Govind, K. Kowalski, M. Valiev, D. Mejia-Rodriguez,
       A. Kunitsa, N. P. Bauman, A. Panyala, W. A. de Jong, T. P. Straatsma,
   H. J. J. van Dam, D. Wang, T. L. Windus, J. Hammond, J. Autschbach, A. Woods,
    K. Bhaskaran-Nair, J. Brabec, K. Lopata, S. A. Fischer, S. Krishnamoorthy,
     M. Jacquelin, W. Ma, M. Klemm, O. Villa, Y. Chen, V. Anisimov, F. Aquino,
     S. Hirata, M. T. Hackler, E. Hermes, L. Jensen, J. E. Moore, J. C. Becca,
      V. Konjkov, T. Risthaus, M. Malagoli, A. Marenich, A. Otero-de-la-Roza,
        J. Mullin, P. Nichols, R. Peverati, J. Pittner, Y. Zhao, P.-D. Fan,
        A. Fonari, M. J. Williamson, R. J. Harrison, J. R. Rehr, M. Dupuis,
     D. Silverstein, D. M. A. Smith, J. Nieplocha, V. Tipparaju, M. Krishnan,
     B. E. Van Kuiken, A. Vazquez-Mayagoitia, M. Swart, Q. Wu, T. Van Voorhis,
     A. A. Auer, M. Nooijen, L. D. Crosby, E. Brown, G. Cisneros, G. I. Fann,
   H. Fruchtl, J. Garza, K. Hirao, R. A. Kendall, J. A. Nichols, K. Tsemekhman,
    K. Wolinski, J. Anchell, D. E. Bernholdt, P. Borowski, T. Clark, D. Clerc,
   H. Dachsel, M. J. O. Deegan, K. Dyall, D. Elwood, E. Glendening, M. Gutowski,
   A. C. Hess, J. Jaffe, B. G. Johnson, J. Ju, R. Kobayashi, R. Kutteh, Z. Lin,
   R. Littlefield, X. Long, B. Meng, T. Nakajima, S. Niu, L. Pollack, M. Rosing,
   K. Glaesemann, G. Sandrone, M. Stave, H. Taylor, G. Thomas, J. H. van Lenthe,
                               A. T. Wong, Z. Zhang.

 Total times  cpu:      105.8s     wall:      107.0s
