 argument  1 = m1e/mol.nwi
                                         
                                         


             Northwest Computational Chemistry Package (NWChem) 7.2.2
             --------------------------------------------------------


                    Environmental Molecular Sciences Laboratory
                       Pacific Northwest National Laboratory
                                Richland, WA 99352

                              Copyright (c) 1994-2022
                       Pacific Northwest National Laboratory
                            Battelle Memorial Institute

             NWChem is an open-source computational chemistry package
                        distributed under the terms of the
                      Educational Community License (ECL) 2.0
             A copy of the license is included with this distribution
                              in the LICENSE.TXT file

                                  ACKNOWLEDGMENT
                                  --------------

            This software and its documentation were developed at the
            EMSL at Pacific Northwest National Laboratory, a multiprogram
            national laboratory, operated for the U.S. Department of Energy
            by Battelle under Contract Number DE-AC05-76RL01830. Support
            for this work was provided by the Department of Energy Office
            of Biological and Environmental Research, Office of Basic
            Energy Sciences, and the Office of Advanced Scientific Computing.


           Job information
           ---------------

    hostname        = r310.ib.bridges2.psc.edu
    program         = nwchem
    date            = Tue Oct  1 15:21:56 2024

    compiled        = Mon_Mar_18_17:03:37_2024
    source          = /ocean/projects/pscstaff/mmadrid/nwchem-7.2.2
    nwchem branch   = 7.2.2
    nwchem revision = 74936fb9
    ga revision     = 5.8.0
    use scalapack   = F
    input           = m1e/mol.nwi
    prefix          = dft.
    data base       = .//dft.db
    status          = startup
    nproc           =       15
    time left       =     -1s



           Memory information
           ------------------

    heap     =   67108858 doubles =    512.0 Mbytes
    stack    =   67108863 doubles =    512.0 Mbytes
    global   =  134217728 doubles =   1024.0 Mbytes (distinct from heap & stack)
    total    =  268435449 doubles =   2048.0 Mbytes
    verify   = yes
    hardfail = no 


           Directory information
           ---------------------

  0 permanent = ./
  0 scratch   = /jet/home/hmt47/nwchem_scratch/




                                NWChem Input Module
                                -------------------


  library name resolved from: environment
  library file name is: </opt/packages/nwchem/nwchem7.2.2/share/nwchem/libraries/>
  


 Summary of "ao basis" -> "" (cartesian)
 ------------------------------------------------------------------------------
       Tag                 Description            Shells   Functions and Types
 ---------------- ------------------------------  ------  ---------------------
 *                        aug-cc-pVTZ                 on all atoms 


  pbe96 is a nonlocal functional; adding pw91lda local functional. 

 Scaling coordinates for geometry "geometry" by  1.889725989
 (inverse scale =  0.529177249)



                             Geometry "geometry" -> ""
                             -------------------------

 Output coordinates in angstroms (scale by  1.889725989 to convert to a.u.)

  No.       Tag          Charge          X              Y              Z
 ---- ---------------- ---------- -------------- -------------- --------------
    1 S                   16.0000    -0.00033402     0.00040839    -0.02351707
    2 O                    8.0000    -0.00091234     1.44351569    -0.53790438
    3 O                    8.0000     1.25137804    -0.72228747    -0.53147647
    4 O                    8.0000    -0.00134733     0.00430513     1.50845551
    5 O                    8.0000    -1.25042234    -0.72389274    -0.53320158

      Atomic Mass 
      ----------- 

      S                 31.972070
      O                 15.994910


 Effective nuclear repulsion energy (a.u.)     258.0748621488

            Nuclear Dipole moment (a.u.) 
            ----------------------------
        X                 Y               Z
 ---------------- ---------------- ----------------
    -0.0298124684     0.0371503500    -2.1340457893


            XYZ format geometry
            -------------------
     5
 geometry
 S                    -0.00033402     0.00040839    -0.02351707
 O                    -0.00091234     1.44351569    -0.53790438
 O                     1.25137804    -0.72228747    -0.53147647
 O                    -0.00134733     0.00430513     1.50845551
 O                    -1.25042234    -0.72389274    -0.53320158

 ==============================================================================
                                internuclear distances
 ------------------------------------------------------------------------------
       center one      |      center two      | atomic units |  angstroms
 ------------------------------------------------------------------------------
    2 O                |   1 S                |     2.89514  |     1.53204
    3 O                |   1 S                |     2.89510  |     1.53202
    4 O                |   1 S                |     2.89502  |     1.53198
    5 O                |   1 S                |     2.89511  |     1.53203
 ------------------------------------------------------------------------------
                         number of included internuclear distances:          4
 ==============================================================================



 ==============================================================================
                                 internuclear angles
 ------------------------------------------------------------------------------
        center 1       |       center 2       |       center 3       |  degrees
 ------------------------------------------------------------------------------
    2 O                |   1 S                |   3 O                |   109.47
    2 O                |   1 S                |   4 O                |   109.47
    2 O                |   1 S                |   5 O                |   109.47
    3 O                |   1 S                |   4 O                |   109.47
    3 O                |   1 S                |   5 O                |   109.47
    4 O                |   1 S                |   5 O                |   109.47
 ------------------------------------------------------------------------------
                            number of included internuclear angles:          6
 ==============================================================================




                                 NWChem DFT Module
                                 -----------------


                      Basis "ao basis" -> "ao basis" (cartesian)
                      -----
  S (Sulphur)
  -----------
            Exponent  Coefficients 
       -------------- ---------------------------------------------------------
  1 S  3.74100000E+05  0.000054
  1 S  5.60500000E+04  0.000421
  1 S  1.27600000E+04  0.002207
  1 S  3.61500000E+03  0.009193
  1 S  1.18300000E+03  0.032112
  1 S  4.28800000E+02  0.094668
  1 S  1.67800000E+02  0.223630
  1 S  6.94700000E+01  0.374393
  1 S  2.98400000E+01  0.329108
  1 S  1.27200000E+01  0.084704
  1 S  5.24400000E+00  0.000441
  1 S  2.21900000E+00  0.001648
  1 S  3.49000000E-01  0.000301

  2 S  3.74100000E+05 -0.000015
  2 S  5.60500000E+04 -0.000116
  2 S  1.27600000E+04 -0.000612
  2 S  3.61500000E+03 -0.002554
  2 S  1.18300000E+03 -0.009087
  2 S  4.28800000E+02 -0.027705
  2 S  1.67800000E+02 -0.072002
  2 S  6.94700000E+01 -0.146439
  2 S  2.98400000E+01 -0.195150
  2 S  1.27200000E+01  0.008192
  2 S  5.24400000E+00  0.516601
  2 S  2.21900000E+00  0.542178
  2 S  3.49000000E-01 -0.009181

  3 S  3.74100000E+05  0.000004
  3 S  5.60500000E+04  0.000034
  3 S  1.27600000E+04  0.000178
  3 S  3.61500000E+03  0.000741
  3 S  1.18300000E+03  0.002646
  3 S  4.28800000E+02  0.008075
  3 S  1.67800000E+02  0.021228
  3 S  6.94700000E+01  0.043832
  3 S  2.98400000E+01  0.061272
  3 S  1.27200000E+01 -0.003615
  3 S  5.24400000E+00 -0.204510
  3 S  2.21900000E+00 -0.381871
  3 S  3.49000000E-01  0.714147

  4 S  7.76700000E-01  1.000000

  5 S  1.32200000E-01  1.000000

  6 S  4.97000000E-02  1.000000

  7 P  5.74400000E+02  0.002423
  7 P  1.35800000E+02  0.019280
  7 P  4.31900000E+01  0.088540
  7 P  1.58700000E+01  0.254654
  7 P  6.20800000E+00  0.433984
  7 P  2.48300000E+00  0.354953
  7 P  3.22900000E-01 -0.005030

  8 P  5.74400000E+02 -0.000620
  8 P  1.35800000E+02 -0.004939
  8 P  4.31900000E+01 -0.023265
  8 P  1.58700000E+01 -0.068520
  8 P  6.20800000E+00 -0.123896
  8 P  2.48300000E+00 -0.096950
  8 P  3.22900000E-01  0.569394

  9 P  8.68800000E-01  1.000000

 10 P  1.09800000E-01  1.000000

 11 P  3.51000000E-02  1.000000

 12 D  2.69000000E-01  1.000000

 13 D  8.19000000E-01  1.000000

 14 D  1.01000000E-01  1.000000

 15 F  5.57000000E-01  1.000000

 16 F  2.18000000E-01  1.000000

  O (Oxygen)
  ----------
            Exponent  Coefficients 
       -------------- ---------------------------------------------------------
  1 S  1.53300000E+04  0.000508
  1 S  2.29900000E+03  0.003929
  1 S  5.22400000E+02  0.020243
  1 S  1.47300000E+02  0.079181
  1 S  4.75500000E+01  0.230687
  1 S  1.67600000E+01  0.433118
  1 S  6.20700000E+00  0.350260
  1 S  6.88200000E-01 -0.008154

  2 S  1.53300000E+04 -0.000115
  2 S  2.29900000E+03 -0.000895
  2 S  5.22400000E+02 -0.004636
  2 S  1.47300000E+02 -0.018724
  2 S  4.75500000E+01 -0.058463
  2 S  1.67600000E+01 -0.136463
  2 S  6.20700000E+00 -0.175740
  2 S  6.88200000E-01  0.603418

  3 S  1.75200000E+00  1.000000

  4 S  2.38400000E-01  1.000000

  5 S  7.37600000E-02  1.000000

  6 P  3.44600000E+01  0.015928
  6 P  7.74900000E+00  0.099740
  6 P  2.28000000E+00  0.310492

  7 P  7.15600000E-01  1.000000

  8 P  2.14000000E-01  1.000000

  9 P  5.97400000E-02  1.000000

 10 D  2.31400000E+00  1.000000

 11 D  6.45000000E-01  1.000000

 12 D  2.14000000E-01  1.000000

 13 F  1.42800000E+00  1.000000

 14 F  5.00000000E-01  1.000000



 Summary of "ao basis" -> "ao basis" (cartesian)
 ------------------------------------------------------------------------------
       Tag                 Description            Shells   Functions and Types
 ---------------- ------------------------------  ------  ---------------------
 S                        aug-cc-pVTZ               16       59   6s5p3d2f
 O                        aug-cc-pVTZ               14       55   5s4p3d2f




 Summary of "ao basis" -> "ao basis" (cartesian)
 ------------------------------------------------------------------------------
       Tag                 Description            Shells   Functions and Types
 ---------------- ------------------------------  ------  ---------------------
 S                        aug-cc-pVTZ               16       59   6s5p3d2f
 O                        aug-cc-pVTZ               14       55   5s4p3d2f


  Caching 1-el integrals 

            General Information
            -------------------
          SCF calculation type: DFT
          Wavefunction type:  spin polarized.
          No. of atoms     :     5
          No. of electrons :    49
           Alpha electrons :    25
            Beta electrons :    24
          Charge           :    -1
          Spin multiplicity:     2
          Use of symmetry is: off; symmetry adaption is: off
          Maximum number of iterations: 100
          AO basis - number of functions:   279
                     number of shells:    72
          Convergence on energy requested:  1.00D-06
          Convergence on density requested:  1.00D-05
          Convergence on gradient requested:  5.00D-04

              XC Information
              --------------
          PerdewBurkeErnzerhof Exchange Functional  1.000          
            Perdew 1991 LDA Correlation Functional  1.000 local    
           PerdewBurkeErnz. Correlation Functional  1.000 non-local

             Grid Information
             ----------------
          Grid used for XC integration:  medium    
          Radial quadrature: Mura-Knowles        
          Angular quadrature: Lebedev. 
          Tag              B.-S. Rad. Rad. Pts. Rad. Cut. Ang. Pts.
          ---              ---------- --------- --------- ---------
          S                   1.00       88          10.0       590
          O                   0.60       49          11.0       434
          Grid pruning is: on 
          Number of quadrature shells:   284
          Spatial weights used:  Erf1

          Convergence Information
          -----------------------
          Convergence aids based upon iterative change in 
          total energy or number of iterations. 
          Levelshifting, if invoked, occurs when the 
          HOMO/LUMO gap drops below (HL_TOL):  1.00D-02
          DIIS, if invoked, will attempt to extrapolate 
          using up to (NFOCK): 10 stored Fock matrices.

                    Damping(40%)  Levelshifting(0.0)       DIIS
                  --------------- ------------------- ---------------
          dE  on:    start            0.00D+00            start   
          dE off:  100 iters          0.00D+00          100 iters 


      Screening Tolerance Information
      -------------------------------
          Density screening/tol_rho:  1.00D-10
          AO Gaussian exp screening on grid/accAOfunc:  14
          CD Gaussian exp screening on grid/accCDfunc:  20
          XC Gaussian exp screening on grid/accXCfunc:  20
          Schwarz screening/accCoul:  1.00D-08


 Forcing the number of linearly dependent vectors to be  0

      Superposition of Atomic Density Guess
      -------------------------------------

 Sum of atomic energies:        -696.61213433
   Time after variat. SCF:      0.5
   Time prior to 1st pass:      0.5

 Grid_pts file          = /jet/home/hmt47/nwchem_scratch//dft.gridpts.00
 Record size in doubles =  12289        No. of grid_pts per rec  =   3070
 Max. records in memory =      5        Max. recs in file   =  67550051

 Grid integrated density:      48.000002232197
 Requested integration accuracy:   0.10E-05

           Memory utilization after 1st SCF pass: 
           Heap Space remaining (MW):       33.36            33363906
          Stack Space remaining (MW):       67.11            67106508

   convergence    iter        energy       DeltaE   RMS-Dens  Diis-err    time
 ---------------- ----- ----------------- --------- --------- ---------  ------
 d=40,ls=0.0,diis     1   -699.6416202679 -9.58D+02  6.34D-03  1.29D+01     1.4
                                                     6.26D-03  1.19D+01
 Grid integrated density:      48.600001837202
 Requested integration accuracy:   0.10E-05
 d=40,ls=0.0,diis     2   -699.0909266782  5.51D-01  5.08D-03  2.27D+00     4.4
                                                     5.23D-03  2.10D+00
 Grid integrated density:      48.840002097437
 Requested integration accuracy:   0.10E-05
 d=40,ls=0.0,diis     3   -698.3839387051  7.07D-01  2.15D-03  1.24D+00     7.1
                                                     2.53D-03  1.07D+00
 Grid integrated density:      48.936002174132
 Requested integration accuracy:   0.10E-05
 d=40,ls=0.0,diis     4   -698.6719439146 -2.88D-01  7.67D-04  2.92D-01    10.1
                                                     1.92D-03  2.67D-01
 Grid integrated density:      48.974401990898
 Requested integration accuracy:   0.10E-05
 d=40,ls=0.0,diis     5   -698.7475924874 -7.56D-02  4.33D-04  7.08D-02    13.2
                                                     2.15D-03  5.68D-02
 Grid integrated density:      48.989762009316
 Requested integration accuracy:   0.10E-05
  Resetting Diis
 d=40,ls=0.0,diis     6   -698.7541723753 -6.58D-03  2.32D-04  6.53D-02    16.3
                                                     1.88D-03  4.79D-02
 Grid integrated density:      48.995906023105
 Requested integration accuracy:   0.10E-05
 d=40,ls=0.0,diis     7   -698.7792572983 -2.51D-02  5.41D-04  1.32D-02    19.3
                                                     1.95D-03  9.97D-03
 Grid integrated density:      48.998363496264
 Requested integration accuracy:   0.10E-05
 d=40,ls=0.0,diis     8   -698.7395867626  3.97D-02  2.72D-04  1.07D-01    22.3
                                                     1.17D-03  8.89D-02
 Grid integrated density:      48.999346589763
 Requested integration accuracy:   0.10E-05
 d=40,ls=0.0,diis     9   -698.7649180133 -2.53D-02  1.65D-04  5.05D-02    25.4
                                                     2.17D-03  4.20D-02
 Grid integrated density:      48.999739869382
 Requested integration accuracy:   0.10E-05
 d=40,ls=0.0,diis    10   -698.7767118495 -1.18D-02  8.02D-05  2.62D-02    28.3
                                                     1.43D-03  1.94D-02
 Grid integrated density:      48.999897165885
 Requested integration accuracy:   0.10E-05
 d=40,ls=0.0,diis    11   -698.7742320420  2.48D-03  3.85D-05  3.32D-02    31.2
                                                     1.80D-03  2.39D-02
 d=40,ls=0.0,diis    12   -698.7758365933 -1.60D-03  2.88D-05  3.00D-02    34.3
                                                     8.72D-04  2.12D-02
 d=40,ls=0.0,diis    13   -698.7744679137  1.37D-03  1.28D-05  3.39D-02    37.3
                                                     3.20D-04  2.47D-02
 d=40,ls=0.0,diis    14   -698.7723350986  2.13D-03  1.19D-05  3.91D-02    40.2
                                                     3.11D-04  2.92D-02
 d=40,ls=0.0,diis    15   -698.7698141463  2.52D-03  4.70D-06  4.46D-02    42.9
                                                     1.21D-04  3.33D-02
 d=40,ls=0.0,diis    16   -698.7686733441  1.14D-03  1.46D-05  4.71D-02    46.0
                                                     1.10D-03  3.52D-02
 d=40,ls=0.0,diis    17   -698.7716537765 -2.98D-03  1.16D-04  4.11D-02    49.0
                                                     2.32D-03  3.11D-02
 d=40,ls=0.0,diis    18   -698.7810801906 -9.43D-03  7.16D-05  1.84D-02    52.0
                                                     1.86D-03  1.35D-02
 d=40,ls=0.0,diis    19   -698.7851821108 -4.10D-03  2.69D-05  9.26D-03    54.9
                                                     1.48D-03  6.57D-03
 d=40,ls=0.0,diis    20   -698.7893348616 -4.15D-03  1.24D-05  1.78D-03    57.8
                                                     7.35D-04  5.60D-04
 d=40,ls=0.0,diis    21   -698.7891982298  1.37D-04  1.01D-05  3.58D-03    60.8
                                                     3.31D-04  1.27D-03
 d=40,ls=0.0,diis    22   -698.7886730224  5.25D-04  5.91D-06  5.44D-03    64.0
                                                     6.42D-04  2.54D-03
 d=40,ls=0.0,diis    23   -698.7856749750  3.00D-03  1.10D-05  1.18D-02    67.0
                                                     2.01D-04  7.87D-03
 d=40,ls=0.0,diis    24   -698.7843530063  1.32D-03  5.34D-06  1.47D-02    70.0
                                                     9.59D-05  1.04D-02
 d=40,ls=0.0,diis    25   -698.7837165323  6.36D-04  1.77D-05  1.61D-02    73.0
                                                     4.50D-04  1.17D-02
 d=40,ls=0.0,diis    26   -698.7856833542 -1.97D-03  2.00D-05  1.19D-02    76.0
                                                     9.48D-04  8.29D-03
 d=40,ls=0.0,diis    27   -698.7887457995 -3.06D-03  2.03D-05  4.77D-03    80.0
                                                     9.21D-04  2.51D-03
 d=40,ls=0.0,diis    28   -698.7893776101 -6.32D-04  3.15D-05  3.34D-03    82.9
                                                     1.78D-04  1.60D-03
 d=40,ls=0.0,diis    29   -698.7892643657  1.13D-04  1.38D-05  3.88D-03    85.8
                                                     9.53D-04  1.70D-03
 d=40,ls=0.0,diis    30   -698.7889158969  3.48D-04  4.19D-05  4.29D-03    88.8
                                                     5.24D-04  2.19D-03
 d=40,ls=0.0,diis    31   -698.7869317112  1.98D-03  8.60D-05  8.19D-03    91.9
                                                     2.59D-04  5.96D-03
 d=40,ls=0.0,diis    32   -698.7872107000 -2.79D-04  5.50D-05  7.55D-03    94.9
                                                     1.13D-04  5.95D-03
 d=40,ls=0.0,diis    33   -698.7871049079  1.06D-04  2.89D-05  7.94D-03    97.9
                                                     1.07D-04  6.63D-03
 d=40,ls=0.0,diis    34   -698.7866796492  4.25D-04  1.93D-05  8.96D-03   101.0
                                                     7.66D-05  7.59D-03
 d=40,ls=0.0,diis    35   -698.7868112764 -1.32D-04  1.03D-05  8.77D-03   103.9
                                                     4.65D-05  7.43D-03
 d=40,ls=0.0,diis    36   -698.7870088319 -1.98D-04  1.29D-05  8.38D-03   107.0
                                                     1.44D-04  7.09D-03
 d=40,ls=0.0,diis    37   -698.7876521615 -6.43D-04  2.64D-05  6.93D-03   110.0
                                                     1.35D-04  5.88D-03
 d=40,ls=0.0,diis    38   -698.7885641757 -9.12D-04  1.53D-05  4.86D-03   113.1
                                                     8.58D-05  4.08D-03
 d=40,ls=0.0,diis    39   -698.7892235944 -6.59D-04  3.74D-05  3.39D-03   116.1
                                                     3.13D-04  2.85D-03
 d=40,ls=0.0,diis    40   -698.7905624979 -1.34D-03  1.00D-05  2.95D-04   119.1
                                                     4.16D-05  2.43D-04
 d=40,ls=0.0,diis    41   -698.7906612054 -9.87D-05  5.86D-06  1.18D-04   122.1
                                                     1.94D-05  9.83D-05
 d=40,ls=0.0,diis    42   -698.7906997138 -3.85D-05  3.85D-06  4.96D-05   125.1
                                                     1.96D-05  4.17D-05
 d=40,ls=0.0,diis    43   -698.7907189139 -1.92D-05  2.81D-06  1.47D-05   128.1
                                                     1.82D-05  1.24D-05
 d=40,ls=0.0,diis    44   -698.7907264553 -7.54D-06  8.72D-07  1.45D-06   131.1
                                                     4.33D-06  1.21D-06
 d=40,ls=0.0,diis    45   -698.7907277986 -1.34D-06  3.59D-07  2.35D-07   134.1
                                                     1.17D-06  1.93D-07
 d=40,ls=0.0,diis    46   -698.7907282087 -4.10D-07  1.78D-07  6.34D-08   137.0
                                                     7.53D-07  5.23D-08


         Total DFT energy =     -698.790728208714
      One electron energy =    -1486.863030269135
           Coulomb energy =      589.767448727070
    Exchange-Corr. energy =      -59.770008815414
 Nuclear repulsion energy =      258.074862148765

 Numeric. integr. density =       49.000002035266

     Total iterative time =    136.5s



                    DFT Final Alpha Molecular Orbital Analysis
                    ------------------------------------------

 Vector    1  Occ=1.000000D+00  E=-8.810613D+01
              MO Center= -3.3D-04,  4.1D-04, -2.4D-02, r^2= 3.6D-03
   Bfn.  Coefficient  Atom+Function         Bfn.  Coefficient  Atom+Function  
  ----- ------------  ---------------      ----- ------------  ---------------
     1      1.006228  1 S  s                  5     -0.204169  1 S  s          
     3      0.054896  1 S  s                 63      0.044795  2 O  s          
   118      0.044798  3 O  s                173      0.044799  4 O  s          
   228      0.044795  5 O  s                  2      0.040978  1 S  s          
   183     -0.033864  4 O  pz                72     -0.031897  2 O  py         

 Vector    2  Occ=1.000000D+00  E=-1.858992D+01
              MO Center= -2.4D-01, -3.5D-03, -3.1D-01, r^2= 2.2D+00
   Bfn.  Coefficient  Atom+Function         Bfn.  Coefficient  Atom+Function  
  ----- ------------  ---------------      ----- ------------  ---------------
   225      0.614393  5 O  s                 60      0.531955  2 O  s          
   115      0.438687  3 O  s                170      0.323064  4 O  s          
     5      0.097860  1 S  s                228     -0.063112  5 O  s          
    63     -0.059134  2 O  s                118     -0.054641  3 O  s          
   173     -0.049077  4 O  s                227      0.039921  5 O  s          

 Vector    3  Occ=1.000000D+00  E=-1.858991D+01
              MO Center= -6.3D-01,  2.7D-01, -5.2D-01, r^2= 1.6D+00
   Bfn.  Coefficient  Atom+Function         Bfn.  Coefficient  Atom+Function  
  ----- ------------  ---------------      ----- ------------  ---------------
   225     -0.704291  5 O  s                 60      0.661849  2 O  s          
   115      0.120150  3 O  s                170      0.086776  4 O  s          
   227     -0.044746  5 O  s                 62      0.042186  2 O  s          
    63     -0.034677  2 O  s                228      0.030946  5 O  s          

 Vector    4  Occ=1.000000D+00  E=-1.858991D+01
              MO Center=  7.8D-01, -2.5D-01, -4.9D-01, r^2= 1.5D+00
   Bfn.  Coefficient  Atom+Function         Bfn.  Coefficient  Atom+Function  
  ----- ------------  ---------------      ----- ------------  ---------------
   115      0.814559  3 O  s                 60     -0.449452  2 O  s          
   225     -0.266100  5 O  s                170      0.140512  4 O  s          
   117      0.051940  3 O  s                118     -0.043425  3 O  s          
    62     -0.028502  2 O  s          

 Vector    5  Occ=1.000000D+00  E=-1.858991D+01
              MO Center=  9.6D-02, -2.0D-02,  1.2D+00, r^2= 7.9D-01
   Bfn.  Coefficient  Atom+Function         Bfn.  Coefficient  Atom+Function  
  ----- ------------  ---------------      ----- ------------  ---------------
   170      0.908139  4 O  s                115     -0.293207  3 O  s          
    60     -0.182572  2 O  s                225     -0.109756  5 O  s          
   172      0.057929  4 O  s                173     -0.049336  4 O  s          
    18     -0.027057  1 S  pz         

 Vector    6  Occ=1.000000D+00  E=-7.683816D+00
              MO Center= -3.3D-04,  4.1D-04, -2.4D-02, r^2= 7.7D-02
   Bfn.  Coefficient  Atom+Function         Bfn.  Coefficient  Atom+Function  
  ----- ------------  ---------------      ----- ------------  ---------------
     2      0.889799  1 S  s                  5      0.163432  1 S  s          
     4      0.118361  1 S  s                  3     -0.061083  1 S  s          
    63     -0.049227  2 O  s                118     -0.049230  3 O  s          
   173     -0.049231  4 O  s                228     -0.049228  5 O  s          
   183      0.036052  4 O  pz                72      0.033958  2 O  py         

 Vector    7  Occ=1.000000D+00  E=-5.705425D+00
              MO Center= -3.3D-04,  4.1D-04, -2.4D-02, r^2= 6.9D-02
   Bfn.  Coefficient  Atom+Function         Bfn.  Coefficient  Atom+Function  
  ----- ------------  ---------------      ----- ------------  ---------------
     8      0.957600  1 S  py                 9      0.497625  1 S  pz         
    11      0.231907  1 S  py                 7     -0.144800  1 S  px         
    12      0.120523  1 S  pz                48     -0.080767  1 S  fyzz       
    46     -0.078017  1 S  fyyy              41     -0.074310  1 S  fxxy       
    63     -0.056065  2 O  s                118      0.056067  3 O  s          

 Vector    8  Occ=1.000000D+00  E=-5.705425D+00
              MO Center= -3.4D-04,  4.1D-04, -2.4D-02, r^2= 6.9D-02
   Bfn.  Coefficient  Atom+Function         Bfn.  Coefficient  Atom+Function  
  ----- ------------  ---------------      ----- ------------  ---------------
     7      0.756676  1 S  px                 9      0.735719  1 S  pz         
     8     -0.267899  1 S  py                10      0.183257  1 S  px         
    12      0.178191  1 S  pz                11     -0.064880  1 S  py         
    42     -0.063591  1 S  fxxz              45     -0.063891  1 S  fxzz       
    40     -0.060907  1 S  fxxx              43     -0.060879  1 S  fxyy       

 Vector    9  Occ=1.000000D+00  E=-5.705371D+00
              MO Center= -3.3D-04,  4.1D-04, -2.4D-02, r^2= 6.9D-02
   Bfn.  Coefficient  Atom+Function         Bfn.  Coefficient  Atom+Function  
  ----- ------------  ---------------      ----- ------------  ---------------
     7      0.769504  1 S  px                 9     -0.629877  1 S  pz         
     8      0.443669  1 S  py                10      0.186426  1 S  px         
    12     -0.152608  1 S  pz                11      0.107483  1 S  py         
    45     -0.064976  1 S  fxzz              40     -0.061943  1 S  fxxx       
    43     -0.061926  1 S  fxyy              42      0.055654  1 S  fxxz       

 Vector   10  Occ=1.000000D+00  E=-8.667860D-01
              MO Center= -3.2D-04,  3.8D-04, -2.3D-02, r^2= 1.6D+00
   Bfn.  Coefficient  Atom+Function         Bfn.  Coefficient  Atom+Function  
  ----- ------------  ---------------      ----- ------------  ---------------
     3      0.386139  1 S  s                  5     -0.346501  1 S  s          
    63      0.222860  2 O  s                118      0.222882  3 O  s          
   173      0.222910  4 O  s                228      0.222876  5 O  s          
    61      0.178955  2 O  s                116      0.178970  3 O  s          
   171      0.178999  4 O  s                226      0.178968  5 O  s          

 Vector   11  Occ=1.000000D+00  E=-7.238769D-01
              MO Center= -4.5D-01, -2.6D-01,  3.6D-01, r^2= 1.7D+00
   Bfn.  Coefficient  Atom+Function         Bfn.  Coefficient  Atom+Function  
  ----- ------------  ---------------      ----- ------------  ---------------
   171      0.335037  4 O  s                226     -0.330114  5 O  s          
   173      0.228596  4 O  s                228     -0.225269  5 O  s          
    15      0.118158  1 S  pz               172      0.093303  4 O  s          
   227     -0.091933  5 O  s                  9     -0.087482  1 S  pz         
    13      0.085453  1 S  px                61     -0.071058  2 O  s          

 Vector   12  Occ=1.000000D+00  E=-7.238668D-01
              MO Center=  4.6D-01,  2.6D-01, -3.9D-01, r^2= 1.7D+00
   Bfn.  Coefficient  Atom+Function         Bfn.  Coefficient  Atom+Function  
  ----- ------------  ---------------      ----- ------------  ---------------
   116     -0.334148  3 O  s                 61      0.331039  2 O  s          
   118     -0.228000  3 O  s                 63      0.225890  2 O  s          
    14      0.132557  1 S  py                 8     -0.098149  1 S  py         
   117     -0.093056  3 O  s                 62      0.092192  2 O  s          
    41      0.070346  1 S  fxxy             171      0.070112  4 O  s          

 Vector   13  Occ=1.000000D+00  E=-7.235776D-01
              MO Center= -1.1D-02,  9.3D-04, -3.7D-02, r^2= 2.1D+00
   Bfn.  Coefficient  Atom+Function         Bfn.  Coefficient  Atom+Function  
  ----- ------------  ---------------      ----- ------------  ---------------
   226     -0.244167  5 O  s                 61      0.241765  2 O  s          
   116      0.238868  3 O  s                171     -0.236425  4 O  s          
   228     -0.165832  5 O  s                 63      0.164190  2 O  s          
   118      0.162215  3 O  s                173     -0.160541  4 O  s          
    13      0.104320  1 S  px                15     -0.083462  1 S  pz         

 Vector   14  Occ=1.000000D+00  E=-3.588242D-01
              MO Center= -3.4D-04,  4.1D-04, -2.4D-02, r^2= 3.0D+00
   Bfn.  Coefficient  Atom+Function         Bfn.  Coefficient  Atom+Function  
  ----- ------------  ---------------      ----- ------------  ---------------
     3      0.413442  1 S  s                 61     -0.192369  2 O  s          
   116     -0.192368  3 O  s                171     -0.192372  4 O  s          
   226     -0.192371  5 O  s                  6      0.161083  1 S  s          
    63     -0.157639  2 O  s                118     -0.157641  3 O  s          
   173     -0.157635  4 O  s                228     -0.157642  5 O  s          

 Vector   15  Occ=1.000000D+00  E=-2.563515D-01
              MO Center=  3.2D-01,  1.8D-01, -2.8D-01, r^2= 2.6D+00
   Bfn.  Coefficient  Atom+Function         Bfn.  Coefficient  Atom+Function  
  ----- ------------  ---------------      ----- ------------  ---------------
    14      0.197944  1 S  py                61     -0.153103  2 O  s          
    63     -0.153145  2 O  s                116      0.153061  3 O  s          
   118      0.153097  3 O  s                 66     -0.149130  2 O  py         
    69     -0.149336  2 O  py               120      0.147303  3 O  px         
   123      0.147426  3 O  px                13     -0.122990  1 S  px         

 Vector   16  Occ=1.000000D+00  E=-2.563493D-01
              MO Center= -3.2D-01, -1.8D-01,  2.3D-01, r^2= 2.6D+00
   Bfn.  Coefficient  Atom+Function         Bfn.  Coefficient  Atom+Function  
  ----- ------------  ---------------      ----- ------------  ---------------
    15      0.189968  1 S  pz               177     -0.165626  4 O  pz         
   180     -0.165820  4 O  pz               171     -0.153007  4 O  s          
   173     -0.153030  4 O  s                226      0.153163  5 O  s          
   228      0.153204  5 O  s                230     -0.152778  5 O  px         
   233     -0.152963  5 O  px                 9     -0.116473  1 S  pz         

 Vector   17  Occ=1.000000D+00  E=-2.531700D-01
              MO Center=  1.8D-04,  4.0D-04, -2.3D-02, r^2= 2.8D+00
   Bfn.  Coefficient  Atom+Function         Bfn.  Coefficient  Atom+Function  
  ----- ------------  ---------------      ----- ------------  ---------------
    13      0.166992  1 S  px                15     -0.136648  1 S  pz         
    66     -0.126840  2 O  py                69     -0.126355  2 O  py         
   177      0.121852  4 O  pz               180      0.121316  4 O  pz         
   121      0.117894  3 O  py               124      0.117734  3 O  py         
    63     -0.110725  2 O  s                118     -0.110802  3 O  s          

 Vector   18  Occ=1.000000D+00  E=-1.522085D-01
              MO Center= -3.2D-04,  3.8D-04, -2.4D-02, r^2= 2.8D+00
   Bfn.  Coefficient  Atom+Function         Bfn.  Coefficient  Atom+Function  
  ----- ------------  ---------------      ----- ------------  ---------------
   179      0.158826  4 O  py               234     -0.158847  5 O  py         
   176      0.156371  4 O  py               231     -0.156390  5 O  py         
    70      0.149723  2 O  pz               125     -0.149746  3 O  pz         
    67      0.147404  2 O  pz               122     -0.147429  3 O  pz         
    32      0.110174  1 S  dyz               26      0.102957  1 S  dyz        

 Vector   19  Occ=1.000000D+00  E=-1.343414D-01
              MO Center=  7.2D-02,  4.1D-02, -8.0D-02, r^2= 3.0D+00
   Bfn.  Coefficient  Atom+Function         Bfn.  Coefficient  Atom+Function  
  ----- ------------  ---------------      ----- ------------  ---------------
   177      0.162214  4 O  pz                70      0.159155  2 O  pz         
    67      0.157962  2 O  pz               180      0.155598  4 O  pz         
   125      0.154178  3 O  pz               122      0.152367  3 O  pz         
   232      0.126537  5 O  pz               230      0.125277  5 O  px         
   235      0.123797  5 O  pz               233      0.120188  5 O  px         

 Vector   20  Occ=1.000000D+00  E=-1.343391D-01
              MO Center= -7.0D-02, -4.2D-02,  3.4D-02, r^2= 3.0D+00
   Bfn.  Coefficient  Atom+Function         Bfn.  Coefficient  Atom+Function  
  ----- ------------  ---------------      ----- ------------  ---------------
   234      0.175419  5 O  py                66      0.174507  2 O  py         
   231      0.174308  5 O  py               179      0.171739  4 O  py         
   176      0.170194  4 O  py                69      0.168265  2 O  py         
   121      0.150298  3 O  py               124      0.146794  3 O  py         
   182      0.125138  4 O  py               237      0.121948  5 O  py         

 Vector   21  Occ=1.000000D+00  E=-1.342558D-01
              MO Center= -2.5D-03,  1.4D-03, -2.5D-02, r^2= 2.8D+00
   Bfn.  Coefficient  Atom+Function         Bfn.  Coefficient  Atom+Function  
  ----- ------------  ---------------      ----- ------------  ---------------
   235      0.170008  5 O  pz               232      0.168965  5 O  pz         
    68      0.156150  2 O  px                65      0.155306  2 O  px         
   178     -0.154973  4 O  px               175     -0.154133  4 O  px         
   124      0.149465  3 O  py               121      0.148449  3 O  py         
    30     -0.113307  1 S  dxz               24     -0.107986  1 S  dxz        

 Vector   22  Occ=1.000000D+00  E=-1.247163D-01
              MO Center= -6.8D-05,  5.7D-04, -2.4D-02, r^2= 3.0D+00
   Bfn.  Coefficient  Atom+Function         Bfn.  Coefficient  Atom+Function  
  ----- ------------  ---------------      ----- ------------  ---------------
   120      0.134353  3 O  px               230      0.134318  5 O  px         
   123      0.130523  3 O  px               233      0.130494  5 O  px         
    65      0.127245  2 O  px                68      0.126995  2 O  px         
   175      0.127176  4 O  px               178      0.126920  4 O  px         
    23      0.112622  1 S  dxy              177     -0.112681  4 O  pz         

 Vector   23  Occ=1.000000D+00  E=-8.184352D-02
              MO Center= -3.9D-04,  4.2D-04, -2.4D-02, r^2= 2.9D+00
   Bfn.  Coefficient  Atom+Function         Bfn.  Coefficient  Atom+Function  
  ----- ------------  ---------------      ----- ------------  ---------------
   179     -0.180825  4 O  py               234      0.180857  5 O  py         
   176     -0.176070  4 O  py               231      0.176101  5 O  py         
    70      0.170463  2 O  pz               125     -0.170463  3 O  pz         
    67      0.165979  2 O  pz               122     -0.165979  3 O  pz         
   182     -0.141169  4 O  py               237      0.141192  5 O  py         

 Vector   24  Occ=1.000000D+00  E=-6.569430D-02
              MO Center= -3.7D-01, -2.1D-01,  2.8D-01, r^2= 2.7D+00
   Bfn.  Coefficient  Atom+Function         Bfn.  Coefficient  Atom+Function  
  ----- ------------  ---------------      ----- ------------  ---------------
   235      0.248369  5 O  pz               232      0.244686  5 O  pz         
   178      0.216724  4 O  px               175      0.213358  4 O  px         
   238      0.195938  5 O  pz               181      0.173475  4 O  px         
   179      0.142153  4 O  py               176      0.139703  4 O  py         
    70     -0.118709  2 O  pz                67     -0.115274  2 O  pz         

 Vector   25  Occ=1.000000D+00  E=-6.569135D-02
              MO Center=  3.7D-01,  2.1D-01, -3.2D-01, r^2= 2.7D+00
   Bfn.  Coefficient  Atom+Function         Bfn.  Coefficient  Atom+Function  
  ----- ------------  ---------------      ----- ------------  ---------------
    68      0.231478  2 O  px                65      0.227669  2 O  px         
   124     -0.217326  3 O  py               121     -0.214318  3 O  py         
    71      0.185190  2 O  px               127     -0.169936  3 O  py         
   125      0.130045  3 O  pz               122      0.127507  3 O  pz         
   234      0.115972  5 O  py               231      0.112476  5 O  py         

 Vector   26  Occ=0.000000D+00  E= 1.357310D-01
              MO Center= -3.9D-04,  4.5D-04, -2.4D-02, r^2= 1.3D+01
   Bfn.  Coefficient  Atom+Function         Bfn.  Coefficient  Atom+Function  
  ----- ------------  ---------------      ----- ------------  ---------------
     6      8.838075  1 S  s                 64     -3.610416  2 O  s          
   119     -3.610373  3 O  s                174     -3.610625  4 O  s          
   229     -3.610403  5 O  s                  5      2.202887  1 S  s          
   186      1.039428  4 O  pz                75      0.979478  2 O  py         
    34      0.924758  1 S  dxx               37      0.923507  1 S  dyy        

 Vector   27  Occ=0.000000D+00  E= 1.570012D-01
              MO Center=  1.2D-01,  7.1D-02, -1.2D-01, r^2= 1.8D+01
   Bfn.  Coefficient  Atom+Function         Bfn.  Coefficient  Atom+Function  
  ----- ------------  ---------------      ----- ------------  ---------------
    64      2.890349  2 O  s                119     -2.888513  3 O  s          
    20     -2.704368  1 S  py                17     -2.501088  1 S  py         
   174      1.157273  4 O  s                229     -1.159226  5 O  s          
    21     -0.892610  1 S  pz                18     -0.825467  1 S  pz         
    19      0.825931  1 S  px                16      0.763906  1 S  px         

 Vector   28  Occ=0.000000D+00  E= 1.570015D-01
              MO Center= -1.2D-01, -7.0D-02,  7.6D-02, r^2= 1.8D+01
   Bfn.  Coefficient  Atom+Function         Bfn.  Coefficient  Atom+Function  
  ----- ------------  ---------------      ----- ------------  ---------------
   174      2.889192  4 O  s                229     -2.889836  5 O  s          
    21     -2.248566  1 S  pz                18     -2.079642  1 S  pz         
    19     -1.926846  1 S  px                16     -1.782184  1 S  px         
    64     -1.157644  2 O  s                119      1.158979  3 O  s          
   131      0.536607  3 O  pz               186     -0.463581  4 O  pz         

 Vector   29  Occ=0.000000D+00  E= 1.575488D-01
              MO Center= -1.9D-04,  3.2D-04, -2.3D-02, r^2= 1.8D+01
   Bfn.  Coefficient  Atom+Function         Bfn.  Coefficient  Atom+Function  
  ----- ------------  ---------------      ----- ------------  ---------------
    64      2.214903  2 O  s                119      2.216918  3 O  s          
   174     -2.217086  4 O  s                229     -2.214701  5 O  s          
    19     -2.106376  1 S  px                16     -1.953690  1 S  px         
    21      1.722172  1 S  pz                18      1.597332  1 S  pz         
    20     -1.211767  1 S  py                17     -1.123905  1 S  py         

 Vector   30  Occ=0.000000D+00  E= 2.236041D-01
              MO Center=  3.0D-01,  1.8D-01, -2.7D-01, r^2= 1.4D+01
   Bfn.  Coefficient  Atom+Function         Bfn.  Coefficient  Atom+Function  
  ----- ------------  ---------------      ----- ------------  ---------------
    17      4.628104  1 S  py                64     -2.223620  2 O  s          
   119      2.220838  3 O  s                 75      1.903024  2 O  py         
   129     -1.631115  3 O  px                18      1.534148  1 S  pz         
    16     -1.404962  1 S  px                20     -1.254604  1 S  py         
    51     -1.170056  1 S  fxxy              56     -1.120922  1 S  fyyy       

 Vector   31  Occ=0.000000D+00  E= 2.236064D-01
              MO Center= -3.0D-01, -1.8D-01,  2.2D-01, r^2= 1.4D+01
   Bfn.  Coefficient  Atom+Function         Bfn.  Coefficient  Atom+Function  
  ----- ------------  ---------------      ----- ------------  ---------------
    18      3.837412  1 S  pz                16      3.309508  1 S  px         
   174     -2.218768  4 O  s                229      2.225942  5 O  s          
   186      2.007934  4 O  pz               239      1.645645  5 O  px         
    21     -1.040214  1 S  pz                59     -0.961054  1 S  fzzz       
   240      0.939467  5 O  py               119     -0.901810  3 O  s          

 Vector   32  Occ=0.000000D+00  E= 2.238305D-01
              MO Center=  1.3D-03,  1.6D-03, -2.1D-02, r^2= 1.4D+01
   Bfn.  Coefficient  Atom+Function         Bfn.  Coefficient  Atom+Function  
  ----- ------------  ---------------      ----- ------------  ---------------
    16      3.608979  1 S  px                18     -2.967686  1 S  pz         
    17      2.078981  1 S  py                64     -1.706608  2 O  s          
   119     -1.705944  3 O  s                174      1.714408  4 O  s          
   229      1.700091  5 O  s                186     -1.551177  4 O  pz         
    75      1.449826  2 O  py               129      1.270967  3 O  px         

 Vector   33  Occ=0.000000D+00  E= 2.337115D-01
              MO Center= -3.1D-04,  3.7D-04, -2.4D-02, r^2= 1.4D+01
   Bfn.  Coefficient  Atom+Function         Bfn.  Coefficient  Atom+Function  
  ----- ------------  ---------------      ----- ------------  ---------------
    38      2.279894  1 S  dyz               36     -1.324529  1 S  dxz        
    35      0.926106  1 S  dxy              185     -0.911519  4 O  py         
   240      0.911676  5 O  py                76     -0.859226  2 O  pz         
   131      0.859507  3 O  pz                37      0.814036  1 S  dyy        
    34     -0.807297  1 S  dxx               26      0.558546  1 S  dyz        

 Vector   34  Occ=0.000000D+00  E= 2.348558D-01
              MO Center= -2.5D-04,  4.4D-04, -2.4D-02, r^2= 1.4D+01
   Bfn.  Coefficient  Atom+Function         Bfn.  Coefficient  Atom+Function  
  ----- ------------  ---------------      ----- ------------  ---------------
    36      2.319250  1 S  dxz               35     -1.634193  1 S  dxy        
    38      1.336129  1 S  dyz              241      0.994978  5 O  pz         
    74      0.917381  2 O  px               184     -0.916641  4 O  px         
   130      0.876328  3 O  py                24      0.569171  1 S  dxz        
   238      0.549648  5 O  pz               185     -0.530269  4 O  py         

 Vector   35  Occ=0.000000D+00  E= 2.409318D-01
              MO Center= -3.9D-04,  4.5D-04, -2.4D-02, r^2= 5.1D+00
   Bfn.  Coefficient  Atom+Function         Bfn.  Coefficient  Atom+Function  
  ----- ------------  ---------------      ----- ------------  ---------------
     6      8.285886  1 S  s                 64     -3.691221  2 O  s          
   119     -3.689893  3 O  s                174     -3.688715  4 O  s          
   229     -3.691033  5 O  s                 37      0.858788  1 S  dyy        
    39      0.852248  1 S  dzz               34      0.846786  1 S  dxx        
   186      0.726506  4 O  pz                75      0.683946  2 O  py         

 Vector   36  Occ=0.000000D+00  E= 2.597163D-01
              MO Center= -3.7D-04,  4.4D-04, -2.3D-02, r^2= 1.4D+01
   Bfn.  Coefficient  Atom+Function         Bfn.  Coefficient  Atom+Function  
  ----- ------------  ---------------      ----- ------------  ---------------
     5     10.384500  1 S  s                 34      3.902709  1 S  dxx        
    37      3.890621  1 S  dyy               39      3.896821  1 S  dzz        
    64     -3.352861  2 O  s                119     -3.352686  3 O  s          
   174     -3.353463  4 O  s                229     -3.352810  5 O  s          
   186      1.961633  4 O  pz                75      1.849252  2 O  py         

 Vector   37  Occ=0.000000D+00  E= 2.745429D-01
              MO Center= -3.5D-02, -2.0D-02,  4.9D-03, r^2= 4.1D+00
   Bfn.  Coefficient  Atom+Function         Bfn.  Coefficient  Atom+Function  
  ----- ------------  ---------------      ----- ------------  ---------------
    17      3.336731  1 S  py                64     -2.794191  2 O  s          
   119      2.796305  3 O  s                174     -1.456715  4 O  s          
   229      1.455359  5 O  s                 18      1.386819  1 S  pz         
    75      1.283864  2 O  py                38     -1.072592  1 S  dyz        
    34     -0.983661  1 S  dxx              129     -0.942420  3 O  px         

 Vector   38  Occ=0.000000D+00  E= 2.745515D-01
              MO Center=  3.5D-02,  2.0D-02, -5.2D-02, r^2= 4.1D+00
   Bfn.  Coefficient  Atom+Function         Bfn.  Coefficient  Atom+Function  
  ----- ------------  ---------------      ----- ------------  ---------------
   174      2.796462  4 O  s                229     -2.794281  5 O  s          
    18     -2.681098  1 S  pz                16     -2.493713  1 S  px         
    64     -1.454110  2 O  s                119      1.457906  3 O  s          
   186     -1.292997  4 O  pz                35      1.137386  1 S  dxy        
   239     -1.062044  5 O  px                39     -0.861149  1 S  dzz        

 Vector   39  Occ=0.000000D+00  E= 2.791106D-01
              MO Center= -3.2D-04,  3.3D-04, -2.4D-02, r^2= 4.1D+00
   Bfn.  Coefficient  Atom+Function         Bfn.  Coefficient  Atom+Function  
  ----- ------------  ---------------      ----- ------------  ---------------
    16      2.610195  1 S  px                64     -2.246931  2 O  s          
   119     -2.244387  3 O  s                174      2.246507  4 O  s          
   229      2.246285  5 O  s                 18     -2.133573  1 S  pz         
    17      1.504727  1 S  py                35     -1.228263  1 S  dxy        
   186     -1.061653  4 O  pz                75      0.952407  2 O  py         

 Vector   40  Occ=0.000000D+00  E= 3.044974D-01
              MO Center= -7.3D-04,  2.0D-04, -2.4D-02, r^2= 1.4D+01
   Bfn.  Coefficient  Atom+Function         Bfn.  Coefficient  Atom+Function  
  ----- ------------  ---------------      ----- ------------  ---------------
   185     -1.382867  4 O  py               240      1.384614  5 O  py         
    76      1.303683  2 O  pz               131     -1.303562  3 O  pz         
    74      0.799364  2 O  px               129     -0.798671  3 O  px         
   184      0.799506  4 O  px               239     -0.800652  5 O  px         
    75      0.465059  2 O  py               130     -0.466565  3 O  py         

 Vector   41  Occ=0.000000D+00  E= 3.052796D-01
              MO Center=  8.2D-02,  4.8D-02, -9.1D-02, r^2= 1.4D+01
   Bfn.  Coefficient  Atom+Function         Bfn.  Coefficient  Atom+Function  
  ----- ------------  ---------------      ----- ------------  ---------------
   130      1.458239  3 O  py               185     -1.406235  4 O  py         
    76      1.332127  2 O  pz               241     -1.067803  5 O  pz         
    74     -0.975968  2 O  px               129      0.855807  3 O  px         
   239      0.852582  5 O  px               240     -0.614359  5 O  py         
   184     -0.518222  4 O  px                75      0.403483  2 O  py         

 Vector   42  Occ=0.000000D+00  E= 3.052799D-01
              MO Center= -8.3D-02, -4.7D-02,  4.4D-02, r^2= 1.4D+01
   Bfn.  Coefficient  Atom+Function         Bfn.  Coefficient  Atom+Function  
  ----- ------------  ---------------      ----- ------------  ---------------
   184      1.692065  4 O  px                74     -1.475951  2 O  px         
   241      1.431793  5 O  pz               131     -1.343666  3 O  pz         
   240     -0.904098  5 O  py               130      0.656960  3 O  py         
   181     -0.361121  4 O  px               238     -0.320625  5 O  pz         
    71      0.312749  2 O  px               128      0.271821  3 O  pz         

 Vector   43  Occ=0.000000D+00  E= 3.241512D-01
              MO Center= -1.3D-01, -7.2D-02,  7.9D-02, r^2= 1.6D+01
   Bfn.  Coefficient  Atom+Function         Bfn.  Coefficient  Atom+Function  
  ----- ------------  ---------------      ----- ------------  ---------------
    20      5.527840  1 S  py                17      2.603422  1 S  py         
   185     -2.388484  4 O  py               130     -2.343616  3 O  py         
   240     -2.340312  5 O  py                75     -2.229515  2 O  py         
    21      1.910995  1 S  pz                19     -1.621772  1 S  px         
    64     -1.372389  2 O  s                119      1.372643  3 O  s          

 Vector   44  Occ=0.000000D+00  E= 3.241520D-01
              MO Center=  1.2D-01,  7.3D-02, -1.3D-01, r^2= 1.6D+01
   Bfn.  Coefficient  Atom+Function         Bfn.  Coefficient  Atom+Function  
  ----- ------------  ---------------      ----- ------------  ---------------
    21      4.568908  1 S  pz                19      3.974126  1 S  px         
    18      2.151647  1 S  pz               131     -1.998913  3 O  pz         
   241     -1.960301  5 O  pz                76     -1.930527  2 O  pz         
    16      1.871830  1 S  px               186     -1.798611  4 O  pz         
   184     -1.755849  4 O  px                74     -1.728751  2 O  px         

 Vector   45  Occ=0.000000D+00  E= 3.252955D-01
              MO Center= -3.6D-04,  2.7D-04, -2.4D-02, r^2= 1.6D+01
   Bfn.  Coefficient  Atom+Function         Bfn.  Coefficient  Atom+Function  
  ----- ------------  ---------------      ----- ------------  ---------------
    19      4.286575  1 S  px                21     -3.505089  1 S  pz         
    20      2.469390  1 S  py                16      2.117058  1 S  px         
    74     -1.862931  2 O  px               184     -1.862908  4 O  px         
    18     -1.730926  1 S  pz               129     -1.732549  3 O  px         
   239     -1.732769  5 O  px               241      1.576303  5 O  pz         

 Vector   46  Occ=0.000000D+00  E= 3.769267D-01
              MO Center= -2.7D-04,  3.8D-04, -2.3D-02, r^2= 1.2D+01
   Bfn.  Coefficient  Atom+Function         Bfn.  Coefficient  Atom+Function  
  ----- ------------  ---------------      ----- ------------  ---------------
     6     20.342285  1 S  s                 64     -8.217863  2 O  s          
   119     -8.219196  3 O  s                174     -8.218664  4 O  s          
   229     -8.218695  5 O  s                  5     -5.670583  1 S  s          
    63      2.567106  2 O  s                118      2.567197  3 O  s          
   173      2.567461  4 O  s                228      2.567199  5 O  s          

 Vector   47  Occ=0.000000D+00  E= 3.823372D-01
              MO Center=  1.7D-01,  9.9D-02, -1.6D-01, r^2= 1.2D+01
   Bfn.  Coefficient  Atom+Function         Bfn.  Coefficient  Atom+Function  
  ----- ------------  ---------------      ----- ------------  ---------------
    64      7.546356  2 O  s                119     -7.528129  3 O  s          
    17     -5.863694  1 S  py               174      5.813031  4 O  s          
   229     -5.828705  5 O  s                 75     -3.419710  2 O  py         
    18     -3.368190  1 S  pz               186     -2.458169  4 O  pz         
   130     -2.405359  3 O  py               240     -2.175827  5 O  py         

 Vector   48  Occ=0.000000D+00  E= 3.823399D-01
              MO Center= -1.7D-01, -9.8D-02,  1.1D-01, r^2= 1.2D+01
   Bfn.  Coefficient  Atom+Function         Bfn.  Coefficient  Atom+Function  
  ----- ------------  ---------------      ----- ------------  ---------------
   174      7.532669  4 O  s                229     -7.542550  5 O  s          
    64     -5.815891  2 O  s                119      5.825621  3 O  s          
    16     -4.764444  1 S  px                18     -4.393918  1 S  pz         
   186     -3.192488  4 O  pz               239     -2.885816  5 O  px         
   129     -2.487655  3 O  px                75      2.045162  2 O  py         

 Vector   49  Occ=0.000000D+00  E= 3.834676D-01
              MO Center=  1.5D-03,  2.2D-04, -2.1D-02, r^2= 1.2D+01
   Bfn.  Coefficient  Atom+Function         Bfn.  Coefficient  Atom+Function  
  ----- ------------  ---------------      ----- ------------  ---------------
    64      6.784366  2 O  s                119      6.795417  3 O  s          
   174     -6.803335  4 O  s                229     -6.776646  5 O  s          
    16     -4.865550  1 S  px                18      3.985967  1 S  pz         
   186      2.868669  4 O  pz                17     -2.797011  1 S  py         
   129     -2.718330  3 O  px               239     -2.711956  5 O  px         

 Vector   50  Occ=0.000000D+00  E= 4.447523D-01
              MO Center=  3.7D-04,  4.7D-03, -2.0D-02, r^2= 7.9D+00
   Bfn.  Coefficient  Atom+Function         Bfn.  Coefficient  Atom+Function  
  ----- ------------  ---------------      ----- ------------  ---------------
    35      4.470763  1 S  dxy               36      3.138214  1 S  dxz        
   119      3.145912  3 O  s                229     -3.150034  5 O  s          
    64      3.123988  2 O  s                174     -3.119271  4 O  s          
    37     -2.548163  1 S  dyy               39      2.549545  1 S  dzz        
   118      2.384216  3 O  s                228     -2.387614  5 O  s          

 Vector   51  Occ=0.000000D+00  E= 4.450681D-01
              MO Center= -2.8D-01, -1.7D-01,  2.1D-01, r^2= 7.8D+00
   Bfn.  Coefficient  Atom+Function         Bfn.  Coefficient  Atom+Function  
  ----- ------------  ---------------      ----- ------------  ---------------
    35      4.261732  1 S  dxy               64     -4.072664  2 O  s          
   119      4.050328  3 O  s                 36      3.002091  1 S  dxz        
    63     -2.983242  2 O  s                118      2.965976  3 O  s          
    37      2.854382  1 S  dyy               38     -2.851456  1 S  dyz        
   174      2.151178  4 O  s                229     -2.127532  5 O  s          

 Vector   52  Occ=0.000000D+00  E= 4.450747D-01
              MO Center=  2.8D-01,  1.6D-01, -2.6D-01, r^2= 7.8D+00
   Bfn.  Coefficient  Atom+Function         Bfn.  Coefficient  Atom+Function  
  ----- ------------  ---------------      ----- ------------  ---------------
   174      4.068430  4 O  s                229     -4.055494  5 O  s          
    34      3.699590  1 S  dxx               39     -3.244294  1 S  dzz        
   173      2.979300  4 O  s                228     -2.969966  5 O  s          
    38      2.932660  1 S  dyz              119     -2.145511  3 O  s          
    64      2.134032  2 O  s                 18     -1.790648  1 S  pz         

 Vector   53  Occ=0.000000D+00  E= 4.839854D-01
              MO Center= -2.9D-04,  4.3D-04, -2.3D-02, r^2= 1.1D+01
   Bfn.  Coefficient  Atom+Function         Bfn.  Coefficient  Atom+Function  
  ----- ------------  ---------------      ----- ------------  ---------------
     5     14.823918  1 S  s                 64     -8.913865  2 O  s          
   119     -8.913907  3 O  s                174     -8.915016  4 O  s          
   229     -8.914252  5 O  s                 34      7.826084  1 S  dxx        
    37      7.865194  1 S  dyy               39      7.845754  1 S  dzz        
     6      4.570941  1 S  s                186      2.555481  4 O  pz         

 Vector   54  Occ=0.000000D+00  E= 5.072256D-01
              MO Center= -4.0D-04,  4.4D-04, -2.4D-02, r^2= 7.2D+00
   Bfn.  Coefficient  Atom+Function         Bfn.  Coefficient  Atom+Function  
  ----- ------------  ---------------      ----- ------------  ---------------
    38      5.179360  1 S  dyz               36     -3.003592  1 S  dxz        
    35      2.099875  1 S  dxy               37      1.847989  1 S  dyy        
    34     -1.835183  1 S  dxx              182     -1.450387  4 O  py         
   237      1.449693  5 O  py                73     -1.367032  2 O  pz         
   128      1.366478  3 O  pz                26      1.003834  1 S  dyz        

 Vector   55  Occ=0.000000D+00  E= 5.127180D-01
              MO Center= -4.1D-04,  4.0D-04, -2.3D-02, r^2= 7.3D+00
   Bfn.  Coefficient  Atom+Function         Bfn.  Coefficient  Atom+Function  
  ----- ------------  ---------------      ----- ------------  ---------------
    36      5.291318  1 S  dxz               35     -3.728388  1 S  dxy        
    38      3.042600  1 S  dyz              238      1.635126  5 O  pz         
    71      1.488723  2 O  px               181     -1.487510  4 O  px         
   127      1.451156  3 O  py                34     -1.250518  1 S  dxx        
    24      1.020258  1 S  dxz               37      0.910844  1 S  dyy        

 Vector   56  Occ=0.000000D+00  E= 5.514245D-01
              MO Center=  1.7D-01,  9.9D-02, -1.6D-01, r^2= 9.0D+00
   Bfn.  Coefficient  Atom+Function         Bfn.  Coefficient  Atom+Function  
  ----- ------------  ---------------      ----- ------------  ---------------
    17     16.181157  1 S  py                18      7.889011  1 S  pz         
    64     -7.067926  2 O  s                119      7.073845  3 O  s          
   174     -4.451813  4 O  s                229      4.446190  5 O  s          
    58     -3.895265  1 S  fyzz              56     -3.846372  1 S  fyyy       
    51     -3.786362  1 S  fxxy              16     -2.883089  1 S  px         

 Vector   57  Occ=0.000000D+00  E= 5.514301D-01
              MO Center= -1.7D-01, -9.8D-02,  1.2D-01, r^2= 9.0D+00
   Bfn.  Coefficient  Atom+Function         Bfn.  Coefficient  Atom+Function  
  ----- ------------  ---------------      ----- ------------  ---------------
    16     12.564987  1 S  px                18     12.617606  1 S  pz         
   174     -7.070610  4 O  s                229      7.070998  5 O  s          
    64      4.448446  2 O  s                119     -4.449107  3 O  s          
    17     -3.913295  1 S  py                35     -3.090758  1 S  dxy        
    52     -3.059280  1 S  fxxz              55     -3.024016  1 S  fxzz       

 Vector   58  Occ=0.000000D+00  E= 5.543385D-01
              MO Center= -6.2D-04,  8.0D-04, -2.4D-02, r^2= 9.0D+00
   Bfn.  Coefficient  Atom+Function         Bfn.  Coefficient  Atom+Function  
  ----- ------------  ---------------      ----- ------------  ---------------
    16     12.891966  1 S  px                18    -10.533663  1 S  pz         
    17      7.432032  1 S  py                64     -5.881415  2 O  s          
   119     -5.874454  3 O  s                174      5.876583  4 O  s          
   229      5.879410  5 O  s                 35     -3.222913  1 S  dxy        
    55     -3.079219  1 S  fxzz              50     -3.018515  1 S  fxxx       

 Vector   59  Occ=0.000000D+00  E= 5.915908D-01
              MO Center= -3.4D-04,  4.0D-04, -2.4D-02, r^2= 5.3D+00
   Bfn.  Coefficient  Atom+Function         Bfn.  Coefficient  Atom+Function  
  ----- ------------  ---------------      ----- ------------  ---------------
    38      3.423642  1 S  dyz               36     -1.987642  1 S  dxz        
    35      1.389343  1 S  dxy               37      1.222318  1 S  dyy        
    34     -1.212021  1 S  dxx              203      1.014480  4 O  dyz        
   182     -0.879980  4 O  py               237      0.879819  5 O  py         
    73     -0.829519  2 O  pz               128      0.829429  3 O  pz         

 Vector   60  Occ=0.000000D+00  E= 5.958011D-01
              MO Center= -3.1D-04,  4.2D-04, -2.4D-02, r^2= 5.2D+00
   Bfn.  Coefficient  Atom+Function         Bfn.  Coefficient  Atom+Function  
  ----- ------------  ---------------      ----- ------------  ---------------
    36      3.318902  1 S  dxz               35     -2.338227  1 S  dxy        
    38      1.911036  1 S  dyz               90     -1.051432  2 O  dxy        
   201      1.001220  4 O  dxz              238      0.915976  5 O  pz         
    71      0.845351  2 O  px               181     -0.844646  4 O  px         
   127      0.806394  3 O  py                24      0.733659  1 S  dxz        

 Vector   61  Occ=0.000000D+00  E= 7.631926D-01
              MO Center= -1.3D-02, -4.8D-03, -4.1D-02, r^2= 7.0D+00
   Bfn.  Coefficient  Atom+Function         Bfn.  Coefficient  Atom+Function  
  ----- ------------  ---------------      ----- ------------  ---------------
    16      3.879510  1 S  px                50     -3.629427  1 S  fxxx       
    53     -3.631933  1 S  fxyy              55     -3.248109  1 S  fxzz       
   228     -3.253109  5 O  s                 63      3.087516  2 O  s          
   118      3.061686  3 O  s                 18     -2.915239  1 S  pz         
   173     -2.896841  4 O  s                 59      2.820164  1 S  fzzz       

 Vector   62  Occ=0.000000D+00  E= 7.633045D-01
              MO Center=  1.5D-01,  9.4D-02, -1.5D-01, r^2= 7.1D+00
   Bfn.  Coefficient  Atom+Function         Bfn.  Coefficient  Atom+Function  
  ----- ------------  ---------------      ----- ------------  ---------------
    63      4.232666  2 O  s                118     -4.189363  3 O  s          
    17      4.016897  1 S  py                56     -3.888353  1 S  fyyy       
    51     -3.691217  1 S  fxxy              64     -3.443062  2 O  s          
   119      3.408564  3 O  s                 58     -3.346854  1 S  fyzz       
    16     -3.128434  1 S  px                53      3.077347  1 S  fxyy       

 Vector   63  Occ=0.000000D+00  E= 7.633186D-01
              MO Center= -1.4D-01, -8.8D-02,  1.2D-01, r^2= 7.1D+00
   Bfn.  Coefficient  Atom+Function         Bfn.  Coefficient  Atom+Function  
  ----- ------------  ---------------      ----- ------------  ---------------
   173      4.331942  4 O  s                 18      4.236745  1 S  pz         
    59     -4.172962  1 S  fzzz             228     -4.082536  5 O  s          
    52     -3.965471  1 S  fxxz             174     -3.522613  4 O  s          
   229      3.323216  5 O  s                 57     -3.232979  1 S  fyyz       
    51     -2.948962  1 S  fxxy             183     -2.926019  4 O  pz         

 Vector   64  Occ=0.000000D+00  E= 7.731587D-01
              MO Center= -1.5D-03,  4.2D-04, -2.5D-02, r^2= 7.4D+00
   Bfn.  Coefficient  Atom+Function         Bfn.  Coefficient  Atom+Function  
  ----- ------------  ---------------      ----- ------------  ---------------
    58      1.402518  1 S  fyzz             203      1.250907  4 O  dyz        
    93     -1.153967  2 O  dyz              148     -1.061353  3 O  dyz        
    53     -1.012644  1 S  fxyy             258      0.964569  5 O  dyz        
    55     -0.805025  1 S  fxzz             146      0.724947  3 O  dxz        
   201     -0.724613  4 O  dxz              185     -0.667734  4 O  py         

 Vector   65  Occ=0.000000D+00  E= 7.751568D-01
              MO Center= -5.1D-02, -3.0D-02,  1.9D-02, r^2= 6.9D+00
   Bfn.  Coefficient  Atom+Function         Bfn.  Coefficient  Atom+Function  
  ----- ------------  ---------------      ----- ------------  ---------------
    55     -1.704569  1 S  fxzz              53      1.628879  1 S  fxyy       
   201     -1.462878  4 O  dxz              256      1.391579  5 O  dxz        
   146      1.287353  3 O  dxz               54     -1.233504  1 S  fxyz       
    91     -1.208158  2 O  dxz               90      1.044791  2 O  dxy        
   145     -0.934985  3 O  dxy              255     -0.927889  5 O  dxy        

 Vector   66  Occ=0.000000D+00  E= 7.751631D-01
              MO Center=  5.1D-02,  3.1D-02, -6.5D-02, r^2= 6.9D+00
   Bfn.  Coefficient  Atom+Function         Bfn.  Coefficient  Atom+Function  
  ----- ------------  ---------------      ----- ------------  ---------------
    58      1.614331  1 S  fyzz             203      1.262779  4 O  dyz        
    93     -1.145932  2 O  dyz              258     -1.125593  5 O  dyz        
   148      1.105268  3 O  dyz               53      0.886332  1 S  fxyy       
    50     -0.877506  1 S  fxxx              57     -0.696005  1 S  fyyz       
    91     -0.694039  2 O  dxz              256     -0.671342  5 O  dxz        

 Vector   67  Occ=0.000000D+00  E= 7.819641D-01
              MO Center= -3.6D-04,  5.6D-04, -2.4D-02, r^2= 6.2D+00
   Bfn.  Coefficient  Atom+Function         Bfn.  Coefficient  Atom+Function  
  ----- ------------  ---------------      ----- ------------  ---------------
   182     -1.021137  4 O  py               237      1.021653  5 O  py         
    73      0.962756  2 O  pz               128     -0.961790  3 O  pz         
   258      0.709876  5 O  dyz              185      0.650805  4 O  py         
   240     -0.650916  5 O  py                76     -0.613503  2 O  pz         
   131      0.612570  3 O  pz                71      0.589710  2 O  px         

 Vector   68  Occ=0.000000D+00  E= 7.843451D-01
              MO Center=  1.1D-02,  7.0D-03, -3.3D-02, r^2= 6.7D+00
   Bfn.  Coefficient  Atom+Function         Bfn.  Coefficient  Atom+Function  
  ----- ------------  ---------------      ----- ------------  ---------------
    71      1.219406  2 O  px               181     -1.099101  4 O  px         
   128      0.977252  3 O  pz                74     -0.911241  2 O  px         
   238     -0.826644  5 O  pz               184      0.822087  4 O  px         
   127     -0.731268  3 O  py               237      0.733521  5 O  py         
   131     -0.717762  3 O  pz               200     -0.697948  4 O  dxy        

 Vector   69  Occ=0.000000D+00  E= 7.843528D-01
              MO Center= -1.2D-02, -6.0D-03, -1.4D-02, r^2= 6.7D+00
   Bfn.  Coefficient  Atom+Function         Bfn.  Coefficient  Atom+Function  
  ----- ------------  ---------------      ----- ------------  ---------------
   238     -1.016026  5 O  pz               182     -1.003390  4 O  py         
    73      0.968120  2 O  pz               127      0.901819  3 O  py         
   241      0.771387  5 O  pz               185      0.751950  4 O  py         
    76     -0.714201  2 O  pz               181     -0.700905  4 O  px         
   130     -0.690205  3 O  py               236      0.650710  5 O  px         

 Vector   70  Occ=0.000000D+00  E= 8.085911D-01
              MO Center= -3.6D-04,  3.6D-04, -2.3D-02, r^2= 5.1D+00
   Bfn.  Coefficient  Atom+Function         Bfn.  Coefficient  Atom+Function  
  ----- ------------  ---------------      ----- ------------  ---------------
    26      1.015176  1 S  dyz              237     -0.744884  5 O  py         
   182      0.729983  4 O  py               128     -0.699104  3 O  pz         
    73      0.677208  2 O  pz                38     -0.610597  1 S  dyz        
    24     -0.590609  1 S  dxz              258     -0.568220  5 O  dyz        
    71      0.421635  2 O  px               181     -0.422827  4 O  px         

 Vector   71  Occ=0.000000D+00  E= 8.099598D-01
              MO Center= -1.7D-05,  4.7D-04, -2.4D-02, r^2= 9.8D+00
   Bfn.  Coefficient  Atom+Function         Bfn.  Coefficient  Atom+Function  
  ----- ------------  ---------------      ----- ------------  ---------------
     5     39.115692  1 S  s                  6    -12.623498  1 S  s          
    64     10.950561  2 O  s                119     10.950795  3 O  s          
   174     10.946733  4 O  s                229     10.947136  5 O  s          
    63    -10.667149  2 O  s                118    -10.667208  3 O  s          
   173    -10.668669  4 O  s                228    -10.667329  5 O  s          

 Vector   72  Occ=0.000000D+00  E= 8.119261D-01
              MO Center= -1.3D-04,  3.6D-04, -2.3D-02, r^2= 5.1D+00
   Bfn.  Coefficient  Atom+Function         Bfn.  Coefficient  Atom+Function  
  ----- ------------  ---------------      ----- ------------  ---------------
     5      4.947854  1 S  s                  6     -1.781394  1 S  s          
    64      1.397888  2 O  s                119      1.394425  3 O  s          
   174      1.396696  4 O  s                229      1.396511  5 O  s          
    63     -1.357546  2 O  s                118     -1.357367  3 O  s          
   173     -1.357487  4 O  s                228     -1.357625  5 O  s          

 Vector   73  Occ=0.000000D+00  E= 8.135957D-01
              MO Center= -1.0D-01, -5.8D-02,  5.8D-02, r^2= 7.9D+00
   Bfn.  Coefficient  Atom+Function         Bfn.  Coefficient  Atom+Function  
  ----- ------------  ---------------      ----- ------------  ---------------
   174      5.895331  4 O  s                229     -5.903739  5 O  s          
    64     -4.409309  2 O  s                119      4.424352  3 O  s          
    16     -2.431015  1 S  px                18     -2.269680  1 S  pz         
    52      1.929438  1 S  fxxz             186     -1.904006  4 O  pz         
   239     -1.786648  5 O  px                55      1.761208  1 S  fxzz       

 Vector   74  Occ=0.000000D+00  E= 8.135994D-01
              MO Center=  9.9D-02,  5.9D-02, -1.1D-01, r^2= 7.9D+00
   Bfn.  Coefficient  Atom+Function         Bfn.  Coefficient  Atom+Function  
  ----- ------------  ---------------      ----- ------------  ---------------
    64      5.911006  2 O  s                119     -5.887744  3 O  s          
   229     -4.428363  5 O  s                174      4.405421  4 O  s          
    17     -3.013258  1 S  py                75     -2.175104  2 O  py         
    57      2.140132  1 S  fyyz              58      2.077773  1 S  fyzz       
   130     -1.761714  3 O  py                18     -1.684836  1 S  pz         

 Vector   75  Occ=0.000000D+00  E= 8.146776D-01
              MO Center=  8.4D-04,  1.3D-04, -2.2D-02, r^2= 8.0D+00
   Bfn.  Coefficient  Atom+Function         Bfn.  Coefficient  Atom+Function  
  ----- ------------  ---------------      ----- ------------  ---------------
   174     -5.539888  4 O  s                 64      5.509731  2 O  s          
   119      5.524445  3 O  s                229     -5.509295  5 O  s          
    16     -2.852185  1 S  px                18      2.337806  1 S  pz         
    52     -1.785686  1 S  fxxz             129     -1.712216  3 O  px         
   239     -1.709278  5 O  px               186      1.690249  4 O  pz         

 Vector   76  Occ=0.000000D+00  E= 8.443348D-01
              MO Center= -2.7D-01, -1.5D-01,  2.0D-01, r^2= 7.9D+00
   Bfn.  Coefficient  Atom+Function         Bfn.  Coefficient  Atom+Function  
  ----- ------------  ---------------      ----- ------------  ---------------
   119      4.408526  3 O  s                 64     -4.374117  2 O  s          
    17      4.054547  1 S  py               118      3.402238  3 O  s          
    63     -3.369872  2 O  s                 16     -3.092450  1 S  px         
    72      3.073676  2 O  py                35      2.719564  1 S  dxy        
   126     -2.663930  3 O  px                38     -2.533992  1 S  dyz        

 Vector   77  Occ=0.000000D+00  E= 8.443382D-01
              MO Center=  2.7D-01,  1.6D-01, -2.4D-01, r^2= 7.9D+00
   Bfn.  Coefficient  Atom+Function         Bfn.  Coefficient  Atom+Function  
  ----- ------------  ---------------      ----- ------------  ---------------
   174     -4.381167  4 O  s                229      4.402090  5 O  s          
    18      4.116319  1 S  pz               228      3.394880  5 O  s          
   173     -3.377635  4 O  s                183      3.258234  4 O  pz         
   236      2.631924  5 O  px                39      2.565896  1 S  dzz        
    17      2.411653  1 S  py                34     -2.334373  1 S  dxx        

 Vector   78  Occ=0.000000D+00  E= 8.446265D-01
              MO Center= -1.9D-04, -5.7D-03, -2.8D-02, r^2= 8.2D+00
   Bfn.  Coefficient  Atom+Function         Bfn.  Coefficient  Atom+Function  
  ----- ------------  ---------------      ----- ------------  ---------------
    16      3.507599  1 S  px                35     -3.063343  1 S  dxy        
    18     -2.910272  1 S  pz                64     -2.817412  2 O  s          
   174      2.817902  4 O  s                119     -2.769330  3 O  s          
   229      2.771704  5 O  s                 63     -2.405453  2 O  s          
   173      2.403192  4 O  s                118     -2.367918  3 O  s          

 Vector   79  Occ=0.000000D+00  E= 8.887145D-01
              MO Center= -2.0D-04,  3.6D-04, -2.3D-02, r^2= 7.2D+00
   Bfn.  Coefficient  Atom+Function         Bfn.  Coefficient  Atom+Function  
  ----- ------------  ---------------      ----- ------------  ---------------
     5     13.502298  1 S  s                  6    -13.018208  1 S  s          
    37      5.216881  1 S  dyy               39      5.183668  1 S  dzz        
    34      5.150681  1 S  dxx               63     -4.047223  2 O  s          
   118     -4.047173  3 O  s                173     -4.047162  4 O  s          
   228     -4.047013  5 O  s                 22      2.636980  1 S  dxx        

 Vector   80  Occ=0.000000D+00  E= 9.275098D-01
              MO Center= -3.7D-04,  4.1D-04, -2.4D-02, r^2= 6.9D+00
   Bfn.  Coefficient  Atom+Function         Bfn.  Coefficient  Atom+Function  
  ----- ------------  ---------------      ----- ------------  ---------------
    38      4.344348  1 S  dyz               36     -2.527967  1 S  dxz        
    35      1.766655  1 S  dxy              182     -1.676238  4 O  py         
   237      1.676673  5 O  py                73     -1.580186  2 O  pz         
   128      1.582041  3 O  pz                37      1.551782  1 S  dyy        
    34     -1.537195  1 S  dxx               71     -0.968359  2 O  px         

 Vector   81  Occ=0.000000D+00  E= 9.302718D-01
              MO Center= -3.7D-04,  3.7D-04, -2.3D-02, r^2= 6.9D+00
   Bfn.  Coefficient  Atom+Function         Bfn.  Coefficient  Atom+Function  
  ----- ------------  ---------------      ----- ------------  ---------------
    36      4.332040  1 S  dxz               35     -3.052025  1 S  dxy        
    38      2.498985  1 S  dyz              238      1.852752  5 O  pz         
    71      1.676165  2 O  px               181     -1.674687  4 O  px         
   127      1.651504  3 O  py                34     -1.053715  1 S  dxx        
    24     -0.966666  1 S  dxz              182     -0.970062  4 O  py         

 Vector   82  Occ=0.000000D+00  E= 9.349663D-01
              MO Center= -3.4D-03,  8.7D-04, -2.7D-02, r^2= 5.9D+00
   Bfn.  Coefficient  Atom+Function         Bfn.  Coefficient  Atom+Function  
  ----- ------------  ---------------      ----- ------------  ---------------
    54      4.627156  1 S  fxyz              52      3.722969  1 S  fxxz       
    55     -2.944692  1 S  fxzz              51     -2.619469  1 S  fxxy       
    10     -2.332699  1 S  px               145     -1.900020  3 O  dxy        
    12      1.882455  1 S  pz               127      1.854575  3 O  py         
    72     -1.818846  2 O  py               238     -1.756197  5 O  pz         

 Vector   83  Occ=0.000000D+00  E= 9.357600D-01
              MO Center=  1.9D-01,  1.1D-01, -1.8D-01, r^2= 5.8D+00
   Bfn.  Coefficient  Atom+Function         Bfn.  Coefficient  Atom+Function  
  ----- ------------  ---------------      ----- ------------  ---------------
    54      3.863353  1 S  fxyz              58      3.337024  1 S  fyzz       
    52     -3.281912  1 S  fxxz              11      2.600435  1 S  py         
    55     -2.522131  1 S  fxzz              72      2.215320  2 O  py         
   126     -2.057667  3 O  px                51      2.031134  1 S  fxxy       
    10     -1.956861  1 S  px                57      1.888071  1 S  fyyz       

 Vector   84  Occ=0.000000D+00  E= 9.357658D-01
              MO Center= -1.9D-01, -1.1D-01,  1.4D-01, r^2= 5.8D+00
   Bfn.  Coefficient  Atom+Function         Bfn.  Coefficient  Atom+Function  
  ----- ------------  ---------------      ----- ------------  ---------------
    57      4.886856  1 S  fyyz              12      2.649728  1 S  pz         
    54     -2.527339  1 S  fxyz             183      2.422311  4 O  pz         
   236      2.370052  5 O  px               204     -2.008043  4 O  dzz        
    52      1.904899  1 S  fxxz              58      1.897416  1 S  fyzz       
    56      1.763315  1 S  fyyy              51     -1.752181  1 S  fxxy       

 Vector   85  Occ=0.000000D+00  E= 1.018411D+00
              MO Center= -3.6D-04,  4.1D-04, -2.3D-02, r^2= 6.7D+00
   Bfn.  Coefficient  Atom+Function         Bfn.  Coefficient  Atom+Function  
  ----- ------------  ---------------      ----- ------------  ---------------
     5     31.116245  1 S  s                 63     -9.244541  2 O  s          
[...]
   178     -7.133180  4 O  px               124      7.033192  3 O  py         
   179     -4.390686  4 O  py                70     -4.128358  2 O  pz         
   262     -4.039715  5 O  fxxz             267     -4.018336  5 O  fyyz       
   269     -4.020523  5 O  fzzz             125     -3.775192  3 O  pz         

 Vector  270  Occ=0.000000D+00  E= 1.406249D+01
              MO Center= -1.9D-04,  6.3D-04, -2.3D-02, r^2= 3.8D+00
   Bfn.  Coefficient  Atom+Function         Bfn.  Coefficient  Atom+Function  
  ----- ------------  ---------------      ----- ------------  ---------------
   234     -7.282746  5 O  py               179      7.133418  4 O  py         
   125     -6.941040  3 O  pz                70      6.723998  2 O  pz         
    68      4.379217  2 O  px               178     -4.391963  4 O  px         
   123     -4.112097  3 O  px               233      4.122028  5 O  px         
   261      3.716172  5 O  fxxy             266      3.716057  5 O  fyyy       

 Vector  271  Occ=0.000000D+00  E= 1.517038D+01
              MO Center= -3.2D-04,  4.3D-04, -2.4D-02, r^2= 3.4D+00
   Bfn.  Coefficient  Atom+Function         Bfn.  Coefficient  Atom+Function  
  ----- ------------  ---------------      ----- ------------  ---------------
     5     45.091238  1 S  s                183     10.570661  4 O  pz         
    72      9.959359  2 O  py               126      8.638070  3 O  px         
   236     -8.626813  5 O  px               180      8.475809  4 O  pz         
    69      7.985379  2 O  py                63     -6.950636  2 O  s          
   118     -6.951211  3 O  s                123      6.925566  3 O  px         

 Vector  272  Occ=0.000000D+00  E= 1.647239D+01
              MO Center=  3.5D-01,  6.5D-01, -5.5D-01, r^2= 2.8D+00
   Bfn.  Coefficient  Atom+Function         Bfn.  Coefficient  Atom+Function  
  ----- ------------  ---------------      ----- ------------  ---------------
    72     13.448341  2 O  py                69      9.588050  2 O  py         
   126     -9.244854  3 O  px                17      9.018766  1 S  py         
    61     -7.190183  2 O  s                 63     -6.750375  2 O  s          
   123     -6.112490  3 O  px                73     -5.623573  2 O  pz         
   106     -5.485414  2 O  fxxy             113     -5.463209  2 O  fyzz       

 Vector  273  Occ=0.000000D+00  E= 1.647245D+01
              MO Center= -6.9D-01, -6.2D-01, -2.0D-01, r^2= 2.7D+00
   Bfn.  Coefficient  Atom+Function         Bfn.  Coefficient  Atom+Function  
  ----- ------------  ---------------      ----- ------------  ---------------
   236     12.242022  5 O  px               233      8.698266  5 O  px         
    16      7.966794  1 S  px               237      7.772460  5 O  py         
   183      7.495715  4 O  pz               226      7.523719  5 O  s          
   228      7.063910  5 O  s                180      5.264153  4 O  pz         
   234      5.147201  5 O  py               275     -4.949169  5 O  fxzz       

 Vector  274  Occ=0.000000D+00  E= 1.647255D+01
              MO Center=  3.4D-01, -3.0D-02,  6.8D-01, r^2= 3.0D+00
   Bfn.  Coefficient  Atom+Function         Bfn.  Coefficient  Atom+Function  
  ----- ------------  ---------------      ----- ------------  ---------------
   183     14.079832  4 O  pz               180      9.887429  4 O  pz         
    18      8.199229  1 S  pz               126     -8.033807  3 O  px         
   171     -6.955544  4 O  s                 72     -6.740914  2 O  py         
   173     -6.532544  4 O  s                217     -5.726171  4 O  fxxz       
   222     -5.735439  4 O  fyyz             123     -5.587675  3 O  px         

 Vector  275  Occ=0.000000D+00  E= 1.712866D+01
              MO Center= -8.8D-02, -2.0D-01,  3.5D-01, r^2= 2.6D+00
   Bfn.  Coefficient  Atom+Function         Bfn.  Coefficient  Atom+Function  
  ----- ------------  ---------------      ----- ------------  ---------------
   183      9.860079  4 O  pz               180      7.113056  4 O  pz         
   236      7.089425  5 O  px                18      6.320325  1 S  pz         
   126     -6.223764  3 O  px               204     -5.415933  4 O  dzz        
    17      5.086661  1 S  py               173      5.071322  4 O  s          
   233      4.806246  5 O  px                57      4.135122  1 S  fyyz       

 Vector  276  Occ=0.000000D+00  E= 1.712871D+01
              MO Center=  2.4D-01,  3.4D-01, -1.8D-01, r^2= 2.6D+00
   Bfn.  Coefficient  Atom+Function         Bfn.  Coefficient  Atom+Function  
  ----- ------------  ---------------      ----- ------------  ---------------
    72      9.357889  2 O  py                69      6.698669  2 O  py         
   126     -6.372238  3 O  px               183     -6.017600  4 O  pz         
    17      5.253972  1 S  py                92     -5.231195  2 O  dyy        
    63      5.072072  2 O  s                 16     -4.828866  1 S  px         
   123     -4.653684  3 O  px               180     -4.342997  4 O  pz         

 Vector  277  Occ=0.000000D+00  E= 1.712882D+01
              MO Center= -1.5D-01, -1.3D-01, -2.6D-01, r^2= 2.7D+00
   Bfn.  Coefficient  Atom+Function         Bfn.  Coefficient  Atom+Function  
  ----- ------------  ---------------      ----- ------------  ---------------
   236      7.065718  5 O  px                72      6.698253  2 O  py         
    16      6.522408  1 S  px               126      5.410105  3 O  px         
   233      5.249652  5 O  px               183     -5.149251  4 O  pz         
   127     -4.939122  3 O  py                69      4.777880  2 O  py         
   228     -4.733682  5 O  s                238      4.364606  5 O  pz         

 Vector  278  Occ=0.000000D+00  E= 1.713469D+01
              MO Center=  8.2D-04, -5.2D-04, -9.8D-03, r^2= 2.7D+00
   Bfn.  Coefficient  Atom+Function         Bfn.  Coefficient  Atom+Function  
  ----- ------------  ---------------      ----- ------------  ---------------
     5     14.477615  1 S  s                173      5.183226  4 O  s          
    63      5.101032  2 O  s                118      5.110914  3 O  s          
   228      5.102816  5 O  s                  6     -4.641205  1 S  s          
   171      3.828714  4 O  s                 61      3.790982  2 O  s          
   116      3.795607  3 O  s                226      3.791777  5 O  s          

 Vector  279  Occ=0.000000D+00  E= 3.669303D+01
              MO Center= -3.4D-04,  4.1D-04, -2.4D-02, r^2= 2.9D+00
   Bfn.  Coefficient  Atom+Function         Bfn.  Coefficient  Atom+Function  
  ----- ------------  ---------------      ----- ------------  ---------------
     5    205.016317  1 S  s                  3    -67.525771  1 S  s          
    63    -50.531471  2 O  s                118    -50.534271  3 O  s          
   173    -50.537222  4 O  s                228    -50.532230  5 O  s          
     2    -46.890378  1 S  s                183     37.543130  4 O  pz         
    72     35.362511  2 O  py               126     30.674623  3 O  px         


   alpha - beta orbital overlaps 
   ----------------------------- 


   alpha      1      2      3      4      5      6      7      8      9     10
    beta      1      2      3      4      5      6      7      8      9     10
 overlap   1.000  0.999  0.993  0.992  0.998  1.000  0.998  0.998  1.000  1.000


   alpha     11     12     13     14     15     16     17     18     19     20
    beta     11     12     13     14     16     17     17     19     22     21
 overlap   0.999  0.999  1.000  1.000  0.838  0.744  0.662  1.000  0.972  0.972


   alpha     21     22     23     24     25     26     27     28     29     30
    beta     18     20     25     23     24     26     27     28     29     31
 overlap   1.000  1.000  1.000  0.873  0.874  1.000  0.979  0.979  1.000  1.000


   alpha     31     32     33     34     35     36     37     38     39     40
    beta     32     30     34     33     35     36     38     39     37     42
 overlap   1.000  1.000  1.000  1.000  0.999  1.000  0.997  0.997  1.000  1.000


   alpha     41     42     43     44     45     46     47     48     49     50
    beta     40     41     43     44     45     46     48     49     47     52
 overlap   0.997  0.997  0.991  0.991  1.000  1.000  1.000  1.000  1.000  1.000


   alpha     51     52     53     54     55     56     57     58     59     60
    beta     50     51     53     54     55     56     57     58     59     60
 overlap   1.000  1.000  1.000  0.999  1.000  0.999  0.999  1.000  1.000  1.000


   alpha     61     62     63     64     65     66     67     68     69     70
    beta     63     61     62     66     64     65     69     67     68     72
 overlap   0.999  0.997  0.996  0.985  0.993  0.993  0.985  0.997  0.997  1.000


   alpha     71     72     73     74     75     76     77     78     79     80
    beta     70     71     74     75     73     77     78     76     79     81
 overlap   0.992  0.991  0.996  0.996  0.998  0.996  0.997  0.995  1.000  1.000


   alpha     81     82     83     84     85     86     87     88     89     90
    beta     80     84     82     83     85     86     87     88     94     91
 overlap   1.000  0.999  1.000  1.000  1.000  1.000  1.000  1.000  1.000  0.886


   alpha     91     92     93     94     95     96     97     98     99    100
    beta     92     89     90     93     95     96     98     99     97    100
 overlap   0.882  0.812  0.811  0.999  1.000  1.000  0.999  0.999  0.999  1.000


   alpha    101    102    103    104    105    106    107    108    109    110
    beta    101    102    103    104    105    106    109    107    108    110
 overlap   1.000  0.998  0.998  0.999  0.999  1.000  0.979  0.985  0.993  1.000


   alpha    111    112    113    114    115    116    117    118    119    120
    beta    113    111    112    115    114    116    118    119    117    122
 overlap   0.999  0.999  0.999  1.000  0.998  0.998  0.971  0.971  0.999  0.999


   alpha    121    122    123    124    125    126    127    128    129    130
    beta    120    121    124    123    126    127    125    128    129    130
 overlap   0.963  0.963  1.000  0.999  0.926  0.926  0.999  0.987  0.984  0.972


   alpha    131    132    133    134    135    136    137    138    139    140
    beta    133    131    132    134    136    137    135    140    138    139
 overlap   0.962  0.997  0.964  1.000  0.995  0.995  1.000  0.998  0.998  0.998


   alpha    141    142    143    144    145    146    147    148    149    150
    beta    141    142    144    143    145    148    146    147    151    149
 overlap   1.000  0.997  1.000  0.996  0.998  0.998  0.999  0.999  1.000  0.999


   alpha    151    152    153    154    155    156    157    158    159    160
    beta    150    152    153    154    155    156    157    158    159    160
 overlap   0.999  0.999  0.989  0.990  0.991  1.000  0.989  0.989  0.999  0.999


   alpha    161    162    163    164    165    166    167    168    169    170
    beta    161    163    162    164    166    167    165    170    168    169
 overlap   1.000  1.000  0.994  0.994  0.967  0.968  0.979  0.999  0.983  0.982


   alpha    171    172    173    174    175    176    177    178    179    180
    beta    171    172    173    174    176    175    177    178    179    180
 overlap   0.998  0.999  0.997  1.000  0.999  0.999  0.983  0.983  1.000  0.999


   alpha    181    182    183    184    185    186    187    188    189    190
    beta    181    182    183    185    186    184    187    190    188    189
 overlap   0.984  0.984  1.000  0.989  0.957  0.951  1.000  0.992  0.991  0.999


   alpha    191    192    193    194    195    196    197    198    199    200
    beta    193    191    192    194    197    195    196    199    200    198
 overlap   0.990  0.999  0.991  1.000  1.000  0.869  0.869  0.872  0.873  1.000


   alpha    201    202    203    204    205    206    207    208    209    210
    beta    202    201    203    204    205    206    207    208    209    212
 overlap   1.000  1.000  1.000  0.999  0.995  0.994  1.000  0.998  0.998  1.000


   alpha    211    212    213    214    215    216    217    218    219    220
    beta    210    211    213    214    215    218    216    217    219    220
 overlap   0.995  0.995  0.985  0.986  0.997  0.998  0.997  0.995  0.996  0.995


   alpha    221    222    223    224    225    226    227    228    229    230
    beta    222    221    223    224    225    228    226    227    229    230
 overlap   1.000  0.997  0.999  0.977  0.976  0.999  0.968  0.968  0.999  0.994


   alpha    231    232    233    234    235    236    237    238    239    240
    beta    231    232    233    235    236    234    238    239    237    242
 overlap   0.993  1.000  1.000  0.993  0.993  0.999  0.989  0.988  0.997  1.000


   alpha    241    242    243    244    245    246    247    248    249    250
    beta    240    241    244    245    243    248    246    247    250    251
 overlap   0.970  0.970  0.999  0.999  0.999  1.000  0.999  0.999  0.999  0.999


   alpha    251    252    253    254    255    256    257    258    259    260
    beta    249    252    254    253    255    258    256    257    261    259
 overlap   1.000  1.000  1.000  1.000  1.000  0.994  1.000  0.994  1.000  1.000


   alpha    261    262    263    264    265    266    267    268    269    270
    beta    260    262    265    263    264    267    268    266    270    269
 overlap   1.000  1.000  1.000  1.000  1.000  0.999  0.999  1.000  0.999  0.999


   alpha    271    272    273    274    275    276    277    278    279
    beta    271    272    273    274    275    276    277    278    279
 overlap   1.000  1.000  0.999  0.999  0.999  0.999  0.998  1.000  1.000

     --------------------------
     Expectation value of S2:  
     --------------------------
      <S2> =      0.7538 (Exact =     0.7500)


 center of mass
 --------------
 x =  -0.00062109 y =   0.00077397 z =  -0.04445929

 moments of inertia (a.u.)
 ------------------
         357.496080274842           0.000300865292          -0.004390355674
           0.000300865292         357.497791165028           0.004635835934
          -0.004390355674           0.004635835934         357.505785239599

     Multipole analysis of the density
     ---------------------------------

     L   x y z        total         alpha         beta         nuclear
     -   - - -        -----         -----         ----         -------
     0   0 0 0     -1.000000    -25.000000    -24.000000     48.000000

     1   1 0 0      0.000931      0.015544      0.015199     -0.029812
     1   0 1 0     -0.000987     -0.019386     -0.018751      0.037150
     1   0 0 1      0.044781      1.111646      1.067180     -2.134046

     2   2 0 0    -31.829470    -62.288975    -58.945830     89.405335
     2   1 1 0     -0.056353      0.013614     -0.069794     -0.000174
     2   1 0 1      0.078874     -0.021095      0.096448      0.003521
     2   0 2 0    -31.765167    -62.304302    -58.865354     89.404489
     2   0 1 1      0.046074     -0.008929      0.058973     -0.003970
     2   0 0 2    -31.798443    -62.343255    -58.950528     89.495340


 Task  times  cpu:      133.9s     wall:      137.2s


                                NWChem Input Module
                                -------------------


 Summary of allocated global arrays
-----------------------------------
  No active global arrays


MA_summarize_allocated_blocks: starting scan ...
heap block 'gridpts', handle 97, address 0x105704a8:
	type of elements:		double precision
	number of elements:		33554432
	address of client space:	0x10570500
	index for client space:		9661433
	total number of bytes:		268435552
MA_summarize_allocated_blocks: scan completed: 1 heap block, 0 stack blocks
MA usage statistics:

	allocation statistics:
					      heap	     stack
					      ----	     -----
	current number of blocks	         1	         0
	maximum number of blocks	        21	        53
	current total bytes		 268435552	         0
	maximum total bytes		 269959616	  38091736
	maximum total K-bytes		    269960	     38092
	maximum total M-bytes		       270	        39


                                     CITATION
                                     --------
                Please cite the following reference when publishing
                           results obtained with NWChem:

          E. Apra, E. J. Bylaska, W. A. de Jong, N. Govind, K. Kowalski,
       T. P. Straatsma, M. Valiev, H. J. J. van Dam, Y. Alexeev, J. Anchell,
       V. Anisimov, F. W. Aquino, R. Atta-Fynn, J. Autschbach, N. P. Bauman,
     J. C. Becca, D. E. Bernholdt, K. Bhaskaran-Nair, S. Bogatko, P. Borowski,
         J. Boschen, J. Brabec, A. Bruner, E. Cauet, Y. Chen, G. N. Chuev,
      C. J. Cramer, J. Daily, M. J. O. Deegan, T. H. Dunning Jr., M. Dupuis,
   K. G. Dyall, G. I. Fann, S. A. Fischer, A. Fonari, H. Fruchtl, L. Gagliardi,
      J. Garza, N. Gawande, S. Ghosh, K. Glaesemann, A. W. Gotz, J. Hammond,
       V. Helms, E. D. Hermes, K. Hirao, S. Hirata, M. Jacquelin, L. Jensen,
   B. G. Johnson, H. Jonsson, R. A. Kendall, M. Klemm, R. Kobayashi, V. Konkov,
      S. Krishnamoorthy, M. Krishnan, Z. Lin, R. D. Lins, R. J. Littlefield,
      A. J. Logsdail, K. Lopata, W. Ma, A. V. Marenich, J. Martin del Campo,
   D. Mejia-Rodriguez, J. E. Moore, J. M. Mullin, T. Nakajima, D. R. Nascimento,
    J. A. Nichols, P. J. Nichols, J. Nieplocha, A. Otero-de-la-Roza, B. Palmer,
    A. Panyala, T. Pirojsirikul, B. Peng, R. Peverati, J. Pittner, L. Pollack,
   R. M. Richard, P. Sadayappan, G. C. Schatz, W. A. Shelton, D. W. Silverstein,
   D. M. A. Smith, T. A. Soares, D. Song, M. Swart, H. L. Taylor, G. S. Thomas,
            V. Tipparaju, D. G. Truhlar, K. Tsemekhman, T. Van Voorhis,
      A. Vazquez-Mayagoitia, P. Verma, O. Villa, A. Vishnu, K. D. Vogiatzis,
        D. Wang, J. H. Weare, M. J. Williamson, T. L. Windus, K. Wolinski,
        A. T. Wong, Q. Wu, C. Yang, Q. Yu, M. Zacharias, Z. Zhang, Y. Zhao,
                                and R. J. Harrison
                        "NWChem: Past, present, and future
                         J. Chem. Phys. 152, 184102 (2020)
                               doi:10.1063/5.0004997

                                      AUTHORS
                                      -------
  E. Apra, E. J. Bylaska, N. Govind, K. Kowalski, M. Valiev, D. Mejia-Rodriguez,
       A. Kunitsa, N. P. Bauman, A. Panyala, W. A. de Jong, T. P. Straatsma,
   H. J. J. van Dam, D. Wang, T. L. Windus, J. Hammond, J. Autschbach, A. Woods,
    K. Bhaskaran-Nair, J. Brabec, K. Lopata, S. A. Fischer, S. Krishnamoorthy,
     M. Jacquelin, W. Ma, M. Klemm, O. Villa, Y. Chen, V. Anisimov, F. Aquino,
     S. Hirata, M. T. Hackler, E. Hermes, L. Jensen, J. E. Moore, J. C. Becca,
      V. Konjkov, T. Risthaus, M. Malagoli, A. Marenich, A. Otero-de-la-Roza,
        J. Mullin, P. Nichols, R. Peverati, J. Pittner, Y. Zhao, P.-D. Fan,
        A. Fonari, M. J. Williamson, R. J. Harrison, J. R. Rehr, M. Dupuis,
     D. Silverstein, D. M. A. Smith, J. Nieplocha, V. Tipparaju, M. Krishnan,
     B. E. Van Kuiken, A. Vazquez-Mayagoitia, M. Swart, Q. Wu, T. Van Voorhis,
     A. A. Auer, M. Nooijen, L. D. Crosby, E. Brown, G. Cisneros, G. I. Fann,
   H. Fruchtl, J. Garza, K. Hirao, R. A. Kendall, J. A. Nichols, K. Tsemekhman,
    K. Wolinski, J. Anchell, D. E. Bernholdt, P. Borowski, T. Clark, D. Clerc,
   H. Dachsel, M. J. O. Deegan, K. Dyall, D. Elwood, E. Glendening, M. Gutowski,
   A. C. Hess, J. Jaffe, B. G. Johnson, J. Ju, R. Kobayashi, R. Kutteh, Z. Lin,
   R. Littlefield, X. Long, B. Meng, T. Nakajima, S. Niu, L. Pollack, M. Rosing,
   K. Glaesemann, G. Sandrone, M. Stave, H. Taylor, G. Thomas, J. H. van Lenthe,
                               A. T. Wong, Z. Zhang.

 Total times  cpu:      134.0s     wall:      137.4s
