 argument  1 = proton/mol.nwi
                                         
                                         


             Northwest Computational Chemistry Package (NWChem) 7.2.2
             --------------------------------------------------------


                    Environmental Molecular Sciences Laboratory
                       Pacific Northwest National Laboratory
                                Richland, WA 99352

                              Copyright (c) 1994-2022
                       Pacific Northwest National Laboratory
                            Battelle Memorial Institute

             NWChem is an open-source computational chemistry package
                        distributed under the terms of the
                      Educational Community License (ECL) 2.0
             A copy of the license is included with this distribution
                              in the LICENSE.TXT file

                                  ACKNOWLEDGMENT
                                  --------------

            This software and its documentation were developed at the
            EMSL at Pacific Northwest National Laboratory, a multiprogram
            national laboratory, operated for the U.S. Department of Energy
            by Battelle under Contract Number DE-AC05-76RL01830. Support
            for this work was provided by the Department of Energy Office
            of Biological and Environmental Research, Office of Basic
            Energy Sciences, and the Office of Advanced Scientific Computing.


           Job information
           ---------------

    hostname        = r274.ib.bridges2.psc.edu
    program         = nwchem
    date            = Wed Oct  2 10:31:58 2024

    compiled        = Mon_Mar_18_17:03:37_2024
    source          = /ocean/projects/pscstaff/mmadrid/nwchem-7.2.2
    nwchem branch   = 7.2.2
    nwchem revision = 74936fb9
    ga revision     = 5.8.0
    use scalapack   = F
    input           = proton/mol.nwi
    prefix          = dft.
    data base       = .//dft.db
    status          = startup
    nproc           =       15
    time left       =     -1s



           Memory information
           ------------------

    heap     =   67108858 doubles =    512.0 Mbytes
    stack    =   67108863 doubles =    512.0 Mbytes
    global   =  134217728 doubles =   1024.0 Mbytes (distinct from heap & stack)
    total    =  268435449 doubles =   2048.0 Mbytes
    verify   = yes
    hardfail = no 


           Directory information
           ---------------------

  0 permanent = ./
  0 scratch   = /jet/home/hmt47/nwchem_scratch/




                                NWChem Input Module
                                -------------------


  library name resolved from: environment
  library file name is: </opt/packages/nwchem/nwchem7.2.2/share/nwchem/libraries/>
  


 Summary of "ao basis" -> "" (cartesian)
 ------------------------------------------------------------------------------
       Tag                 Description            Shells   Functions and Types
 ---------------- ------------------------------  ------  ---------------------
 *                        aug-cc-pVTZ                 on all atoms 


  pbe96 is a nonlocal functional; adding pw91lda local functional. 

 Scaling coordinates for geometry "geometry" by  1.889725989
 (inverse scale =  0.529177249)



                             Geometry "geometry" -> ""
                             -------------------------

 Output coordinates in angstroms (scale by  1.889725989 to convert to a.u.)

  No.       Tag          Charge          X              Y              Z
 ---- ---------------- ---------- -------------- -------------- --------------
    1 N                    7.0000     0.00000000     0.00000000     0.00000000
    2 O                    8.0000    -0.04379000     0.00899900     1.22682100
    3 O                    8.0000     0.58523000     0.97541700    -0.61452100
    4 O                    8.0000    -0.54304300    -0.99191800    -0.63406200
    5 H                    1.0000     0.24078567     0.73289772     1.85217106

      Atomic Mass 
      ----------- 

      N                 14.003070
      O                 15.994910
      H                  1.007825


 Effective nuclear repulsion energy (a.u.)     125.1709820225

            Nuclear Dipole moment (a.u.) 
            ----------------------------
        X                 Y               Z
 ---------------- ---------------- ----------------
     0.4307850924     1.2715620698     3.1711020465


            XYZ format geometry
            -------------------
     5
 geometry
 N                     0.00000000     0.00000000     0.00000000
 O                    -0.04379000     0.00899900     1.22682100
 O                     0.58523000     0.97541700    -0.61452100
 O                    -0.54304300    -0.99191800    -0.63406200
 H                     0.24078567     0.73289772     1.85217106

 ==============================================================================
                                internuclear distances
 ------------------------------------------------------------------------------
       center one      |      center two      | atomic units |  angstroms
 ------------------------------------------------------------------------------
    2 O                |   1 N                |     2.31989  |     1.22764
    3 O                |   1 N                |     2.44321  |     1.29289
    4 O                |   1 N                |     2.44997  |     1.29647
    5 H                |   2 O                |     1.88601  |     0.99804
 ------------------------------------------------------------------------------
                         number of included internuclear distances:          4
 ==============================================================================



 ==============================================================================
                                 internuclear angles
 ------------------------------------------------------------------------------
        center 1       |       center 2       |       center 3       |  degrees
 ------------------------------------------------------------------------------
    2 O                |   1 N                |   3 O                |   119.05
    2 O                |   1 N                |   4 O                |   118.65
    3 O                |   1 N                |   4 O                |   122.30
    1 N                |   2 O                |   5 H                |   128.41
 ------------------------------------------------------------------------------
                            number of included internuclear angles:          4
 ==============================================================================





                           NWChem Geometry Optimization
                           ----------------------------


 maximum gradient threshold         (gmax) =   0.000450
 rms gradient threshold             (grms) =   0.000300
 maximum cartesian step threshold   (xmax) =   0.001800
 rms cartesian step threshold       (xrms) =   0.001200
 fixed trust radius                (trust) =   0.300000
 maximum step size to saddle      (sadstp) =   0.100000
 energy precision                  (eprec) =   5.0D-06
 maximum number of steps          (nptopt) =   40
 initial hessian option           (inhess) =    0
 line search option               (linopt) =    1
 hessian update option            (modupd) =    1
 saddle point option              (modsad) =    0
 initial eigen-mode to follow     (moddir) =    0
 initial variable to follow       (vardir) =    0
 follow first negative mode     (firstneg) =    T
 apply conjugacy                    (opcg) =    F
 source of zmatrix                         =           


          -------------------
          Energy Minimization
          -------------------


 Using diagonal initial Hessian 

          --------
          Step   0
          --------


                         Geometry "geometry" -> "geometry"
                         ---------------------------------

 Output coordinates in angstroms (scale by  1.889725989 to convert to a.u.)

  No.       Tag          Charge          X              Y              Z
 ---- ---------------- ---------- -------------- -------------- --------------
    1 N                    7.0000     0.00000000     0.00000000     0.00000000
    2 O                    8.0000    -0.04379000     0.00899900     1.22682100
    3 O                    8.0000     0.58523000     0.97541700    -0.61452100
    4 O                    8.0000    -0.54304300    -0.99191800    -0.63406200
    5 H                    1.0000     0.24078567     0.73289772     1.85217106

      Atomic Mass 
      ----------- 

      N                 14.003070
      O                 15.994910
      H                  1.007825


 Effective nuclear repulsion energy (a.u.)     125.1709820225

            Nuclear Dipole moment (a.u.) 
            ----------------------------
        X                 Y               Z
 ---------------- ---------------- ----------------
     0.4307850924     1.2715620698     3.1711020465


                                 NWChem DFT Module
                                 -----------------


                      Basis "ao basis" -> "ao basis" (cartesian)
                      -----
  N (Nitrogen)
  ------------
            Exponent  Coefficients 
       -------------- ---------------------------------------------------------
  1 S  1.14200000E+04  0.000523
  1 S  1.71200000E+03  0.004045
  1 S  3.89300000E+02  0.020775
  1 S  1.10000000E+02  0.080727
  1 S  3.55700000E+01  0.233074
  1 S  1.25400000E+01  0.433501
  1 S  4.64400000E+00  0.347472
  1 S  5.11800000E-01 -0.008508

  2 S  1.14200000E+04 -0.000115
  2 S  1.71200000E+03 -0.000895
  2 S  3.89300000E+02 -0.004624
  2 S  1.10000000E+02 -0.018528
  2 S  3.55700000E+01 -0.057339
  2 S  1.25400000E+01 -0.132076
  2 S  4.64400000E+00 -0.172510
  2 S  5.11800000E-01  0.599944

  3 S  1.29300000E+00  1.000000

  4 S  1.78700000E-01  1.000000

  5 S  5.76000000E-02  1.000000

  6 P  2.66300000E+01  0.014670
  6 P  5.94800000E+00  0.091764
  6 P  1.74200000E+00  0.298683

  7 P  5.55000000E-01  1.000000

  8 P  1.72500000E-01  1.000000

  9 P  4.91000000E-02  1.000000

 10 D  1.65400000E+00  1.000000

 11 D  4.69000000E-01  1.000000

 12 D  1.51000000E-01  1.000000

 13 F  1.09300000E+00  1.000000

 14 F  3.64000000E-01  1.000000

  O (Oxygen)
  ----------
            Exponent  Coefficients 
       -------------- ---------------------------------------------------------
  1 S  1.53300000E+04  0.000508
  1 S  2.29900000E+03  0.003929
  1 S  5.22400000E+02  0.020243
  1 S  1.47300000E+02  0.079181
  1 S  4.75500000E+01  0.230687
  1 S  1.67600000E+01  0.433118
  1 S  6.20700000E+00  0.350260
  1 S  6.88200000E-01 -0.008154

  2 S  1.53300000E+04 -0.000115
  2 S  2.29900000E+03 -0.000895
  2 S  5.22400000E+02 -0.004636
  2 S  1.47300000E+02 -0.018724
  2 S  4.75500000E+01 -0.058463
  2 S  1.67600000E+01 -0.136463
  2 S  6.20700000E+00 -0.175740
  2 S  6.88200000E-01  0.603418

  3 S  1.75200000E+00  1.000000

  4 S  2.38400000E-01  1.000000

  5 S  7.37600000E-02  1.000000

  6 P  3.44600000E+01  0.015928
  6 P  7.74900000E+00  0.099740
  6 P  2.28000000E+00  0.310492

  7 P  7.15600000E-01  1.000000

  8 P  2.14000000E-01  1.000000

  9 P  5.97400000E-02  1.000000

 10 D  2.31400000E+00  1.000000

 11 D  6.45000000E-01  1.000000

 12 D  2.14000000E-01  1.000000

 13 F  1.42800000E+00  1.000000

 14 F  5.00000000E-01  1.000000

  H (Hydrogen)
  ------------
            Exponent  Coefficients 
       -------------- ---------------------------------------------------------
  1 S  3.38700000E+01  0.006068
  1 S  5.09500000E+00  0.045308
  1 S  1.15900000E+00  0.202822

  2 S  3.25800000E-01  1.000000

  3 S  1.02700000E-01  1.000000

  4 S  2.52600000E-02  1.000000

  5 P  1.40700000E+00  1.000000

  6 P  3.88000000E-01  1.000000

  7 P  1.02000000E-01  1.000000

  8 D  1.05700000E+00  1.000000

  9 D  2.47000000E-01  1.000000



 Summary of "ao basis" -> "ao basis" (cartesian)
 ------------------------------------------------------------------------------
       Tag                 Description            Shells   Functions and Types
 ---------------- ------------------------------  ------  ---------------------
 N                        aug-cc-pVTZ               14       55   5s4p3d2f
 O                        aug-cc-pVTZ               14       55   5s4p3d2f
 H                        aug-cc-pVTZ                9       25   4s3p2d




 Summary of "ao basis" -> "ao basis" (cartesian)
 ------------------------------------------------------------------------------
       Tag                 Description            Shells   Functions and Types
 ---------------- ------------------------------  ------  ---------------------
 N                        aug-cc-pVTZ               14       55   5s4p3d2f
 O                        aug-cc-pVTZ               14       55   5s4p3d2f
 H                        aug-cc-pVTZ                9       25   4s3p2d


  Caching 1-el integrals 

            General Information
            -------------------
          SCF calculation type: DFT
          Wavefunction type:  closed shell.
          No. of atoms     :     5
          No. of electrons :    32
           Alpha electrons :    16
            Beta electrons :    16
          Charge           :     0
          Spin multiplicity:     1
          Use of symmetry is: off; symmetry adaption is: off
          Maximum number of iterations: 200
          AO basis - number of functions:   245
                     number of shells:    65
          Convergence on energy requested:  1.00D-06
          Convergence on density requested:  1.00D-05
          Convergence on gradient requested:  5.00D-04

              XC Information
              --------------
          PerdewBurkeErnzerhof Exchange Functional  1.000          
            Perdew 1991 LDA Correlation Functional  1.000 local    
           PerdewBurkeErnz. Correlation Functional  1.000 non-local

             Grid Information
             ----------------
          Grid used for XC integration:  medium    
          Radial quadrature: Mura-Knowles        
          Angular quadrature: Lebedev. 
          Tag              B.-S. Rad. Rad. Pts. Rad. Cut. Ang. Pts.
          ---              ---------- --------- --------- ---------
          N                   0.65       49          12.0       434
          O                   0.60       49          13.0       434
          H                   0.35       45          12.0       434
          Grid pruning is: on 
          Number of quadrature shells:   241
          Spatial weights used:  Erf1

          Convergence Information
          -----------------------
          Convergence aids based upon iterative change in 
          total energy or number of iterations. 
          Levelshifting, if invoked, occurs when the 
          HOMO/LUMO gap drops below (HL_TOL):  1.00D-02
          DIIS, if invoked, will attempt to extrapolate 
          using up to (NFOCK): 10 stored Fock matrices.

                    Damping(40%)  Levelshifting(0.0)       DIIS
                  --------------- ------------------- ---------------
          dE  on:    start            0.00D+00            start   
          dE off:  200 iters          0.00D+00          200 iters 


      Screening Tolerance Information
      -------------------------------
          Density screening/tol_rho:  1.00D-10
          AO Gaussian exp screening on grid/accAOfunc:  14
          CD Gaussian exp screening on grid/accCDfunc:  20
          XC Gaussian exp screening on grid/accXCfunc:  20
          Schwarz screening/accCoul:  1.00D-08


 Forcing the number of linearly dependent vectors to be  0

      Superposition of Atomic Density Guess
      -------------------------------------

 Sum of atomic energies:        -279.15378123
   Time after variat. SCF:      0.4
   Time prior to 1st pass:      0.4

 Grid_pts file          = /jet/home/hmt47/nwchem_scratch//dft.gridpts.00
 Record size in doubles =  12289        No. of grid_pts per rec  =   3070
 Max. records in memory =      4        Max. recs in file   =  67550051


           Memory utilization after 1st SCF pass: 
           Heap Space remaining (MW):       33.50            33499826
          Stack Space remaining (MW):       67.11            67107524

   convergence    iter        energy       DeltaE   RMS-Dens  Diis-err    time
 ---------------- ----- ----------------- --------- --------- ---------  ------
 d=40,ls=0.0,diis     1   -281.5059864494 -4.07D+02  9.61D-03  3.86D+01     0.6
 d=40,ls=0.0,diis     2   -280.9770466154  5.29D-01  1.50D-02  7.02D+00     2.0
 d=40,ls=0.0,diis     3   -280.2682521264  7.09D-01  4.94D-03  4.78D+00     3.2
 d=40,ls=0.0,diis     4   -280.5933201804 -3.25D-01  2.12D-03  1.06D+00     4.4
 d=40,ls=0.0,diis     5   -280.6605501790 -6.72D-02  1.13D-03  3.43D-01     5.7
  Resetting Diis
 d=40,ls=0.0,diis     6   -280.6884810418 -2.79D-02  6.25D-04  1.33D-01     6.9
 d=40,ls=0.0,diis     7   -280.7016550567 -1.32D-02  1.65D-03  4.44D-02     8.2
 d=40,ls=0.0,diis     8   -280.6946402063  7.01D-03  5.44D-04  1.06D-01     9.4
 d=40,ls=0.0,diis     9   -280.7052372142 -1.06D-02  2.22D-04  1.86D-02    10.7
 d=40,ls=0.0,diis    10   -280.7081041941 -2.87D-03  1.19D-04  3.64D-03    11.9
 d=40,ls=0.0,diis    11   -280.7090542204 -9.50D-04  5.28D-05  7.70D-04    13.1
 d=40,ls=0.0,diis    12   -280.7094084321 -3.54D-04  1.78D-05  1.16D-04    14.4
 d=40,ls=0.0,diis    13   -280.7095383415 -1.30D-04  6.97D-06  1.86D-05    15.6
 d=40,ls=0.0,diis    14   -280.7095887166 -5.04D-05  2.81D-06  3.12D-06    16.8
 d=40,ls=0.0,diis    15   -280.7096086251 -1.99D-05  1.18D-06  5.17D-07    18.1
 d=40,ls=0.0,diis    16   -280.7096165476 -7.92D-06  4.73D-07  8.31D-08    19.3
 d=40,ls=0.0,diis    17   -280.7096197095 -3.16D-06  1.89D-07  1.33D-08    20.6
 d=40,ls=0.0,diis    18   -280.7096209732 -1.26D-06  7.58D-08  2.13D-09    21.8
  Singularity in Pulay matrix. Error and Fock matrices removed. 
  Singularity in Pulay matrix. Error and Fock matrices removed. 
  Singularity in Pulay matrix. Error and Fock matrices removed. 
  Singularity in Pulay matrix. Error and Fock matrices removed. 
  Singularity in Pulay matrix. Error and Fock matrices removed. 
 d=40,ls=0.0,diis    19   -280.7096214785 -5.05D-07  3.03D-08  3.40D-10    23.0


         Total DFT energy =     -280.709621478457
      One electron energy =     -632.720757761295
           Coulomb energy =      259.438230394495
    Exchange-Corr. energy =      -32.598076134177
 Nuclear repulsion energy =      125.170982022520

 Numeric. integr. density =       32.000001916523

     Total iterative time =     22.6s



                       DFT Final Molecular Orbital Analysis
                       ------------------------------------

 Vector    1  Occ=2.000000D+00  E=-1.889570D+01
              MO Center= -4.4D-02,  9.1D-03,  1.2D+00, r^2= 1.5D-02
   Bfn.  Coefficient  Atom+Function         Bfn.  Coefficient  Atom+Function  
  ----- ------------  ---------------      ----- ------------  ---------------
    56      0.983850  2 O  s                  4      0.088675  1 N  s          
    58      0.066595  2 O  s                 60     -0.045281  2 O  s          
    59     -0.038517  2 O  s                169     -0.037961  4 O  s          
    14     -0.032139  1 N  pz                 5      0.029991  1 N  s          
   178     -0.029790  4 O  py         

 Vector    2  Occ=2.000000D+00  E=-1.880538D+01
              MO Center= -5.4D-01, -9.9D-01, -6.3D-01, r^2= 1.5D-02
   Bfn.  Coefficient  Atom+Function         Bfn.  Coefficient  Atom+Function  
  ----- ------------  ---------------      ----- ------------  ---------------
   166      0.980461  4 O  s                168      0.064563  4 O  s          
     4      0.059980  1 N  s                170     -0.044323  4 O  s          
    13      0.042300  1 N  py                14      0.036873  1 N  pz         
    69      0.035495  2 O  pz                59     -0.032272  2 O  s          
    50      0.026541  1 N  fxyz       

 Vector    3  Occ=2.000000D+00  E=-1.880017D+01
              MO Center=  5.9D-01,  9.8D-01, -6.1D-01, r^2= 1.5D-02
   Bfn.  Coefficient  Atom+Function         Bfn.  Coefficient  Atom+Function  
  ----- ------------  ---------------      ----- ------------  ---------------
   111      0.979929  3 O  s                113      0.064740  3 O  s          
     4      0.062843  1 N  s                115     -0.045385  3 O  s          
    69      0.037098  2 O  pz                14      0.035754  1 N  pz         
   114     -0.031704  3 O  s                 59     -0.029331  2 O  s          

 Vector    4  Occ=2.000000D+00  E=-1.428376D+01
              MO Center= -3.8D-06,  1.4D-07,  9.9D-05, r^2= 2.0D-02
   Bfn.  Coefficient  Atom+Function         Bfn.  Coefficient  Atom+Function  
  ----- ------------  ---------------      ----- ------------  ---------------
     1      0.998515  1 N  s                  4     -0.165050  1 N  s          
     3      0.060843  1 N  s                  2      0.054415  1 N  s          
   169      0.037930  4 O  s                178      0.035812  4 O  py         
   123     -0.030546  3 O  py                31     -0.030344  1 N  dxy        
   114      0.029694  3 O  s                 69     -0.027633  2 O  pz         

 Vector    5  Occ=2.000000D+00  E=-1.217380D+00
              MO Center=  1.1D-03,  4.2D-02,  4.6D-01, r^2= 8.1D-01
   Bfn.  Coefficient  Atom+Function         Bfn.  Coefficient  Atom+Function  
  ----- ------------  ---------------      ----- ------------  ---------------
     2      0.323986  1 N  s                 57      0.317164  2 O  s          
     4      0.236262  1 N  s                 59      0.154338  2 O  s          
   112      0.117574  3 O  s                167      0.112772  4 O  s          
    58      0.084883  2 O  s                  3      0.083121  1 N  s          
    63     -0.079462  2 O  pz                66     -0.069609  2 O  pz         

 Vector    6  Occ=2.000000D+00  E=-1.020578D+00
              MO Center= -1.2D-02, -3.5D-03,  1.1D-01, r^2= 1.4D+00
   Bfn.  Coefficient  Atom+Function         Bfn.  Coefficient  Atom+Function  
  ----- ------------  ---------------      ----- ------------  ---------------
    57      0.304725  2 O  s                167     -0.240303  4 O  s          
    59      0.236911  2 O  s                112     -0.212619  3 O  s          
     2     -0.155788  1 N  s                  4     -0.155104  1 N  s          
     8      0.146179  1 N  pz               169     -0.143106  4 O  s          
   114     -0.132320  3 O  s                 11      0.103761  1 N  pz         

 Vector    7  Occ=2.000000D+00  E=-9.580406D-01
              MO Center=  4.4D-02,  5.0D-02, -3.7D-01, r^2= 1.2D+00
   Bfn.  Coefficient  Atom+Function         Bfn.  Coefficient  Atom+Function  
  ----- ------------  ---------------      ----- ------------  ---------------
   112      0.328626  3 O  s                167     -0.302166  4 O  s          
   114      0.253031  3 O  s                169     -0.245132  4 O  s          
     7      0.158825  1 N  py                10      0.115282  1 N  py         
     6      0.091534  1 N  px               113      0.089461  3 O  s          
   168     -0.082273  4 O  s                  9      0.066273  1 N  px         

 Vector    8  Occ=2.000000D+00  E=-7.331878D-01
              MO Center=  5.0D-03,  1.2D-01,  1.1D+00, r^2= 1.3D+00
   Bfn.  Coefficient  Atom+Function         Bfn.  Coefficient  Atom+Function  
  ----- ------------  ---------------      ----- ------------  ---------------
     4      0.279471  1 N  s                 63     -0.240826  2 O  pz         
    66     -0.217261  2 O  pz               222     -0.205006  5 H  s          
     2      0.176534  1 N  s                169     -0.176556  4 O  s          
    57     -0.161431  2 O  s                167     -0.159710  4 O  s          
     8      0.147949  1 N  pz               221     -0.144456  5 H  s          

 Vector    9  Occ=2.000000D+00  E=-5.410103D-01
              MO Center=  1.4D-02,  3.1D-02,  2.7D-01, r^2= 1.2D+00
   Bfn.  Coefficient  Atom+Function         Bfn.  Coefficient  Atom+Function  
  ----- ------------  ---------------      ----- ------------  ---------------
     6      0.226007  1 N  px                 9      0.216011  1 N  px         
    61      0.163364  2 O  px                64      0.163652  2 O  px         
     7     -0.144667  1 N  py                 4     -0.137133  1 N  s          
    10     -0.137518  1 N  py                62     -0.122513  2 O  py         
    65     -0.119165  2 O  py               114      0.100183  3 O  s          

 Vector   10  Occ=2.000000D+00  E=-5.344351D-01
              MO Center=  2.1D-01,  3.4D-01, -3.7D-01, r^2= 2.0D+00
   Bfn.  Coefficient  Atom+Function         Bfn.  Coefficient  Atom+Function  
  ----- ------------  ---------------      ----- ------------  ---------------
     4      0.476278  1 N  s                114     -0.354112  3 O  s          
   112     -0.282008  3 O  s                169     -0.231906  4 O  s          
     2      0.220884  1 N  s                 59     -0.176332  2 O  s          
   167     -0.167813  4 O  s                117     -0.151081  3 O  py         
   120     -0.149871  3 O  py                 8     -0.132668  1 N  pz         

 Vector   11  Occ=2.000000D+00  E=-5.064135D-01
              MO Center= -2.3D-01, -4.1D-01, -5.4D-02, r^2= 2.0D+00
   Bfn.  Coefficient  Atom+Function         Bfn.  Coefficient  Atom+Function  
  ----- ------------  ---------------      ----- ------------  ---------------
   167      0.243071  4 O  s                169      0.228527  4 O  s          
     7      0.157344  1 N  py                62      0.145214  2 O  py         
    65      0.139973  2 O  py                10      0.136716  1 N  py         
    60     -0.132324  2 O  s                172     -0.132837  4 O  py         
   175     -0.125064  4 O  py               112     -0.111704  3 O  s          

 Vector   12  Occ=2.000000D+00  E=-4.020837D-01
              MO Center=  2.9D-03,  4.0D-02,  5.2D-01, r^2= 2.1D+00
   Bfn.  Coefficient  Atom+Function         Bfn.  Coefficient  Atom+Function  
  ----- ------------  ---------------      ----- ------------  ---------------
    62      0.234509  2 O  py                65      0.226813  2 O  py         
    59     -0.202643  2 O  s                 60     -0.182931  2 O  s          
    57     -0.139109  2 O  s                117      0.139161  3 O  py         
   222      0.138217  5 H  s                120      0.126952  3 O  py         
    68      0.125964  2 O  py                 7     -0.119905  1 N  py         

 Vector   13  Occ=2.000000D+00  E=-3.475883D-01
              MO Center= -9.3D-03,  1.1D-02,  4.6D-01, r^2= 1.8D+00
   Bfn.  Coefficient  Atom+Function         Bfn.  Coefficient  Atom+Function  
  ----- ------------  ---------------      ----- ------------  ---------------
    64      0.284276  2 O  px                61      0.279074  2 O  px         
    67      0.177101  2 O  px               174     -0.135425  4 O  px         
   116     -0.134345  3 O  px               119     -0.134909  3 O  px         
   171     -0.134998  4 O  px                65     -0.131665  2 O  py         
    62     -0.130233  2 O  py                 9     -0.098351  1 N  px         

 Vector   14  Occ=2.000000D+00  E=-3.019005D-01
              MO Center= -1.8D-02, -6.9D-02, -5.1D-01, r^2= 2.0D+00
   Bfn.  Coefficient  Atom+Function         Bfn.  Coefficient  Atom+Function  
  ----- ------------  ---------------      ----- ------------  ---------------
   173      0.250779  4 O  pz               176      0.250698  4 O  pz         
   118      0.246343  3 O  pz               121      0.244942  3 O  pz         
   124      0.135655  3 O  pz                 4      0.132686  1 N  s          
   179      0.128235  4 O  pz                63      0.101614  2 O  pz         
    66      0.090602  2 O  pz               172     -0.077468  4 O  py         

 Vector   15  Occ=2.000000D+00  E=-2.858292D-01
              MO Center=  2.1D-02, -6.3D-03, -5.9D-01, r^2= 1.9D+00
   Bfn.  Coefficient  Atom+Function         Bfn.  Coefficient  Atom+Function  
  ----- ------------  ---------------      ----- ------------  ---------------
   174     -0.245638  4 O  px               119      0.244311  3 O  px         
   116      0.242469  3 O  px               171     -0.243456  4 O  px         
   122      0.156906  3 O  px               177     -0.155923  4 O  px         
   175      0.139916  4 O  py               120     -0.138538  3 O  py         
   172      0.138588  4 O  py               117     -0.137752  3 O  py         

 Vector   16  Occ=2.000000D+00  E=-2.500414D-01
              MO Center=  5.1D-02,  5.4D-02, -5.1D-01, r^2= 2.0D+00
   Bfn.  Coefficient  Atom+Function         Bfn.  Coefficient  Atom+Function  
  ----- ------------  ---------------      ----- ------------  ---------------
   121      0.236404  3 O  pz               118      0.234647  3 O  pz         
   176     -0.211670  4 O  pz               173     -0.207964  4 O  pz         
   124      0.177130  3 O  pz               120      0.155247  3 O  py         
   117      0.153544  3 O  py               172      0.151816  4 O  py         
   175      0.151743  4 O  py               179     -0.145646  4 O  pz         

 Vector   17  Occ=0.000000D+00  E=-1.273674D-01
              MO Center=  7.1D-03,  9.8D-03, -1.3D-01, r^2= 1.9D+00
   Bfn.  Coefficient  Atom+Function         Bfn.  Coefficient  Atom+Function  
  ----- ------------  ---------------      ----- ------------  ---------------
     9      0.300126  1 N  px                 6      0.278741  1 N  px         
    12      0.245962  1 N  px               174     -0.187902  4 O  px         
   119     -0.185496  3 O  px               171     -0.184022  4 O  px         
   116     -0.180942  3 O  px               177     -0.180646  4 O  px         
   122     -0.178410  3 O  px                10     -0.173943  1 N  py         

 Vector   18  Occ=0.000000D+00  E=-6.965340D-02
              MO Center=  2.9D-01,  8.5D-01,  2.0D+00, r^2= 4.2D+00
   Bfn.  Coefficient  Atom+Function         Bfn.  Coefficient  Atom+Function  
  ----- ------------  ---------------      ----- ------------  ---------------
    60      0.691510  2 O  s                224      0.512503  5 H  s          
     5     -0.418458  1 N  s                222      0.249494  5 H  s          
    59     -0.234774  2 O  s                233      0.213480  5 H  pz         
     4      0.200916  1 N  s                 57     -0.192435  2 O  s          
   169     -0.193166  4 O  s                232      0.182165  5 H  py         

 Vector   19  Occ=0.000000D+00  E= 1.553719D-02
              MO Center= -6.3D-03,  3.6D-02,  1.5D-02, r^2= 9.8D+00
   Bfn.  Coefficient  Atom+Function         Bfn.  Coefficient  Atom+Function  
  ----- ------------  ---------------      ----- ------------  ---------------
     5      6.231041  1 N  s                 60     -3.384095  2 O  s          
   170     -2.981021  4 O  s                115     -2.412624  3 O  s          
   223      2.399833  5 H  s                  4      1.117574  1 N  s          
    71     -0.800647  2 O  py                59     -0.770591  2 O  s          
   181     -0.617635  4 O  py               224      0.593492  5 H  s          

 Vector   20  Occ=0.000000D+00  E= 3.344365D-02
              MO Center=  2.7D-01,  8.7D-01,  1.8D+00, r^2= 1.4D+01
   Bfn.  Coefficient  Atom+Function         Bfn.  Coefficient  Atom+Function  
  ----- ------------  ---------------      ----- ------------  ---------------
     5      7.835378  1 N  s                170     -2.475109  4 O  s          
     4      2.236134  1 N  s                224     -2.212397  5 H  s          
    60     -1.765218  2 O  s                 72      1.630852  2 O  pz         
   115     -1.524916  3 O  s                223     -1.261323  5 H  s          
   114     -0.729119  3 O  s                 71      0.608033  2 O  py         

 Vector   21  Occ=0.000000D+00  E= 3.966418D-02
              MO Center=  9.4D-02,  2.8D-01,  1.0D+00, r^2= 1.2D+01
   Bfn.  Coefficient  Atom+Function         Bfn.  Coefficient  Atom+Function  
  ----- ------------  ---------------      ----- ------------  ---------------
    60      4.661897  2 O  s                115     -3.635311  3 O  s          
    16      2.174400  1 N  py               170      1.841399  4 O  s          
    17     -1.752219  1 N  pz               223     -1.355150  5 H  s          
    15      1.249240  1 N  px                 5     -1.177553  1 N  s          
    72     -1.167105  2 O  pz               126      0.647818  3 O  py         

 Vector   22  Occ=0.000000D+00  E= 5.060287D-02
              MO Center=  9.7D-02,  2.2D-01,  7.6D-01, r^2= 8.1D+00
   Bfn.  Coefficient  Atom+Function         Bfn.  Coefficient  Atom+Function  
  ----- ------------  ---------------      ----- ------------  ---------------
    15      1.293408  1 N  px                60     -0.776544  2 O  s          
    13      0.564210  1 N  py                 5      0.517595  1 N  s          
    16     -0.464460  1 N  py               115     -0.403571  3 O  s          
     4      0.400238  1 N  s                 12     -0.401246  1 N  px         
   170      0.370980  4 O  s                 32     -0.360310  1 N  dxz        

 Vector   23  Occ=0.000000D+00  E= 7.243782D-02
              MO Center= -3.6D-01, -6.3D-01, -2.7D-01, r^2= 1.2D+01
   Bfn.  Coefficient  Atom+Function         Bfn.  Coefficient  Atom+Function  
  ----- ------------  ---------------      ----- ------------  ---------------
    60      7.797224  2 O  s                  5     -5.459063  1 N  s          
   170     -3.461038  4 O  s                 17     -3.156546  1 N  pz         
    16     -2.441584  1 N  py               115      2.386979  3 O  s          
   223     -2.061525  5 H  s                 72     -1.689078  2 O  pz         
    59      1.215572  2 O  s                 14     -1.139199  1 N  pz         

 Vector   24  Occ=0.000000D+00  E= 7.860090D-02
              MO Center=  2.5D-01,  5.3D-01,  7.4D-01, r^2= 9.7D+00
   Bfn.  Coefficient  Atom+Function         Bfn.  Coefficient  Atom+Function  
  ----- ------------  ---------------      ----- ------------  ---------------
     5      8.166840  1 N  s                 60     -6.169397  2 O  s          
    17      2.855809  1 N  pz               224     -1.405973  5 H  s          
   223      1.334208  5 H  s                  4     -1.313736  1 N  s          
   169      1.170894  4 O  s                 33     -1.087479  1 N  dyy        
    34     -0.944252  1 N  dyz              115     -0.929228  3 O  s          

 Vector   25  Occ=0.000000D+00  E= 9.472848D-02
              MO Center=  2.0D-01,  2.4D-01, -7.3D-01, r^2= 9.1D+00
   Bfn.  Coefficient  Atom+Function         Bfn.  Coefficient  Atom+Function  
  ----- ------------  ---------------      ----- ------------  ---------------
     5      6.450227  1 N  s                115     -3.647401  3 O  s          
    72      2.120082  2 O  pz               170     -1.991781  4 O  s          
     4      1.571856  1 N  s                 17     -1.481531  1 N  pz         
    31      1.424059  1 N  dxy              114     -1.307497  3 O  s          
    33      1.280603  1 N  dyy              124     -1.042091  3 O  pz         

 Vector   26  Occ=0.000000D+00  E= 1.056737D-01
              MO Center= -7.8D-02, -6.0D-02,  2.7D-01, r^2= 1.1D+01
   Bfn.  Coefficient  Atom+Function         Bfn.  Coefficient  Atom+Function  
  ----- ------------  ---------------      ----- ------------  ---------------
    70     -1.761195  2 O  px                15      1.601507  1 N  px         
    71      1.005159  2 O  py                32      0.925348  1 N  dxz        
    60      0.915109  2 O  s                  5     -0.901227  1 N  s          
    16     -0.900095  1 N  py                 4     -0.598852  1 N  s          
   223     -0.489399  5 H  s                 87      0.374184  2 O  dxz        

 Vector   27  Occ=0.000000D+00  E= 1.081389D-01
              MO Center=  1.0D-01,  1.8D-01,  2.5D-01, r^2= 1.1D+01
   Bfn.  Coefficient  Atom+Function         Bfn.  Coefficient  Atom+Function  
  ----- ------------  ---------------      ----- ------------  ---------------
     4      6.069456  1 N  s                 60     -3.691221  2 O  s          
   223      3.089471  5 H  s                  5      3.058953  1 N  s          
    59     -2.760511  2 O  s                 35      2.558892  1 N  dzz        
    69      2.223395  2 O  pz                14      1.824736  1 N  pz         
    71     -1.656127  2 O  py               115     -1.401071  3 O  s          

 Vector   28  Occ=0.000000D+00  E= 1.211873D-01
              MO Center= -6.2D-03,  2.5D-02, -2.0D-01, r^2= 1.1D+01
   Bfn.  Coefficient  Atom+Function         Bfn.  Coefficient  Atom+Function  
  ----- ------------  ---------------      ----- ------------  ---------------
   125      1.152255  3 O  px               180     -1.045286  4 O  px         
   223     -1.009837  5 H  s                 71      0.863261  2 O  py         
     4      0.843919  1 N  s                 70     -0.629692  2 O  px         
   231      0.581964  5 H  px                 5      0.562619  1 N  s          
    60      0.553019  2 O  s                181      0.496554  4 O  py         

 Vector   29  Occ=0.000000D+00  E= 1.558836D-01
              MO Center= -3.4D-01, -5.1D-01,  6.5D-01, r^2= 1.3D+01
   Bfn.  Coefficient  Atom+Function         Bfn.  Coefficient  Atom+Function  
  ----- ------------  ---------------      ----- ------------  ---------------
     5      7.055282  1 N  s                223     -6.811260  5 H  s          
     4      6.459283  1 N  s                 72      3.079248  2 O  pz         
    71      2.493742  2 O  py               114     -2.201626  3 O  s          
   169     -1.941385  4 O  s                224     -1.778378  5 H  s          
    17      1.675727  1 N  pz                31      1.559522  1 N  dxy        

 Vector   30  Occ=0.000000D+00  E= 1.626071D-01
              MO Center=  4.9D-02,  8.1D-03,  6.1D-01, r^2= 1.2D+01
   Bfn.  Coefficient  Atom+Function         Bfn.  Coefficient  Atom+Function  
  ----- ------------  ---------------      ----- ------------  ---------------
    60     11.458241  2 O  s                223    -10.084732  5 H  s          
    71      5.358778  2 O  py                16     -4.746570  1 N  py         
     5     -3.856342  1 N  s                 70      2.674393  2 O  px         
   115      2.636540  3 O  s                 15     -2.391991  1 N  px         
   182      1.841019  4 O  pz                59      1.756290  2 O  s          

 Vector   31  Occ=0.000000D+00  E= 1.752250D-01
              MO Center=  3.4D-01,  4.6D-01, -4.9D-02, r^2= 1.1D+01
   Bfn.  Coefficient  Atom+Function         Bfn.  Coefficient  Atom+Function  
  ----- ------------  ---------------      ----- ------------  ---------------
     5     13.634286  1 N  s                 60    -12.788178  2 O  s          
     4      7.276015  1 N  s                115     -6.216975  3 O  s          
    17      5.793466  1 N  pz               223      5.487211  5 H  s          
   127     -2.996302  3 O  pz                59     -2.928195  2 O  s          
   170     -2.705119  4 O  s                 16      2.394065  1 N  py         

 Vector   32  Occ=0.000000D+00  E= 1.874600D-01
              MO Center=  1.6D-01,  2.3D-01, -2.0D-01, r^2= 1.1D+01
   Bfn.  Coefficient  Atom+Function         Bfn.  Coefficient  Atom+Function  
  ----- ------------  ---------------      ----- ------------  ---------------
     5      9.102215  1 N  s                 17     -6.309990  1 N  pz         
   170     -4.661889  4 O  s                115     -4.204874  3 O  s          
    14      2.985303  1 N  pz                59     -2.949037  2 O  s          
   127      2.667104  3 O  pz                72      2.651261  2 O  pz         
   182      2.214684  4 O  pz               169      1.891153  4 O  s          

 Vector   33  Occ=0.000000D+00  E= 1.896587D-01
              MO Center= -3.5D-02, -1.1D-01, -5.9D-01, r^2= 1.3D+01
   Bfn.  Coefficient  Atom+Function         Bfn.  Coefficient  Atom+Function  
  ----- ------------  ---------------      ----- ------------  ---------------
    16      6.907438  1 N  py                15      4.510477  1 N  px         
   114      3.297370  3 O  s                 34      3.241565  1 N  dyz        
    60      3.212901  2 O  s                 13     -3.177322  1 N  py         
   169     -2.751546  4 O  s                170      2.745729  4 O  s          
    17     -2.728510  1 N  pz               126     -2.726835  3 O  py         

 Vector   34  Occ=0.000000D+00  E= 1.912472D-01
              MO Center= -1.2D-01, -2.3D-01, -1.4D-01, r^2= 1.2D+01
   Bfn.  Coefficient  Atom+Function         Bfn.  Coefficient  Atom+Function  
  ----- ------------  ---------------      ----- ------------  ---------------
    15      4.774035  1 N  px                16     -3.561891  1 N  py         
   180     -2.629015  4 O  px               125     -1.906439  3 O  px         
   126      1.604221  3 O  py               181      1.527032  4 O  py         
    70     -1.230246  2 O  px               170     -1.151246  4 O  s          
     5      1.127015  1 N  s                 71      1.051273  2 O  py         

 Vector   35  Occ=0.000000D+00  E= 2.084593D-01
              MO Center=  2.6D-02,  5.4D-01,  6.6D-01, r^2= 1.0D+01
   Bfn.  Coefficient  Atom+Function         Bfn.  Coefficient  Atom+Function  
  ----- ------------  ---------------      ----- ------------  ---------------
    15      4.535301  1 N  px                70     -3.338149  2 O  px         
    71      2.394788  2 O  py                16     -2.282762  1 N  py         
   125     -2.188312  3 O  px               231      2.071819  5 H  px         
   170      1.448834  4 O  s                 17      1.303377  1 N  pz         
   126      1.241105  3 O  py               232     -1.201522  5 H  py         

 Vector   36  Occ=0.000000D+00  E= 2.178450D-01
              MO Center= -1.0D-01, -1.8D-01,  2.7D-01, r^2= 6.6D+00
   Bfn.  Coefficient  Atom+Function         Bfn.  Coefficient  Atom+Function  
  ----- ------------  ---------------      ----- ------------  ---------------
     5      4.418548  1 N  s                 72      4.034596  2 O  pz         
    60     -3.538510  2 O  s                223     -2.872799  5 H  s          
   170      2.552140  4 O  s                 13      1.860693  1 N  py         
    71      1.852862  2 O  py                70      1.612898  2 O  px         
   115     -1.488207  3 O  s                182      1.486697  4 O  pz         

 Vector   37  Occ=0.000000D+00  E= 2.422282D-01
              MO Center= -3.5D-01, -7.2D-01,  6.8D-01, r^2= 1.0D+01
   Bfn.  Coefficient  Atom+Function         Bfn.  Coefficient  Atom+Function  
  ----- ------------  ---------------      ----- ------------  ---------------
    60     17.798857  2 O  s                  5    -15.676337  1 N  s          
   170     10.307153  4 O  s                223     -7.317195  5 H  s          
    16      4.121564  1 N  py                72     -3.121064  2 O  pz         
    34      2.878816  1 N  dyz              115     -2.626043  3 O  s          
   233      2.367362  5 H  pz               169     -2.239368  4 O  s          

 Vector   38  Occ=0.000000D+00  E= 2.604254D-01
              MO Center=  2.4D-01,  3.6D-01, -6.5D-01, r^2= 9.1D+00
   Bfn.  Coefficient  Atom+Function         Bfn.  Coefficient  Atom+Function  
  ----- ------------  ---------------      ----- ------------  ---------------
   115     11.415070  3 O  s                  5    -10.008024  1 N  s          
   170      6.626787  4 O  s                 60     -4.230940  2 O  s          
    17      4.193404  1 N  pz                 4      3.466626  1 N  s          
    16     -2.766298  1 N  py                59     -2.254291  2 O  s          
   114     -2.136330  3 O  s                 71      2.120718  2 O  py         

 Vector   39  Occ=0.000000D+00  E= 2.781376D-01
              MO Center= -3.0D-02,  5.3D-02,  2.8D-01, r^2= 1.0D+01
   Bfn.  Coefficient  Atom+Function         Bfn.  Coefficient  Atom+Function  
  ----- ------------  ---------------      ----- ------------  ---------------
    60     17.887174  2 O  s                 17     -9.463844  1 N  pz         
   223     -8.718963  5 H  s                  5     -6.191608  1 N  s          
    71      4.867333  2 O  py                16     -4.647210  1 N  py         
   170     -4.085107  4 O  s                 72      3.275966  2 O  pz         
   182      3.142954  4 O  pz                70      2.522035  2 O  px         

 Vector   40  Occ=0.000000D+00  E= 2.865190D-01
              MO Center=  3.5D-01,  9.3D-01,  1.8D+00, r^2= 7.8D+00
   Bfn.  Coefficient  Atom+Function         Bfn.  Coefficient  Atom+Function  
  ----- ------------  ---------------      ----- ------------  ---------------
     5     15.460813  1 N  s                 60     -8.438771  2 O  s          
   115     -5.959267  3 O  s                  4     -5.106405  1 N  s          
    59      4.575873  2 O  s                 72      3.457053  2 O  pz         
    17      3.285663  1 N  pz               223     -3.151762  5 H  s          
   232      2.562376  5 H  py                90      2.344684  2 O  dzz        

 Vector   41  Occ=0.000000D+00  E= 3.082597D-01
              MO Center=  1.4D-01, -1.1D-02,  4.6D-01, r^2= 1.0D+01
   Bfn.  Coefficient  Atom+Function         Bfn.  Coefficient  Atom+Function  
  ----- ------------  ---------------      ----- ------------  ---------------
    60     15.367071  2 O  s                  5    -10.955183  1 N  s          
   115      8.722993  3 O  s                170     -7.224835  4 O  s          
   223     -7.060602  5 H  s                 72     -4.424753  2 O  pz         
   233      4.027806  5 H  pz                34      3.781869  1 N  dyz        
    16     -2.658264  1 N  py                59      2.662908  2 O  s          

 Vector   42  Occ=0.000000D+00  E= 3.481819D-01
              MO Center= -1.0D-01,  2.7D-01,  2.5D-01, r^2= 7.9D+00
   Bfn.  Coefficient  Atom+Function         Bfn.  Coefficient  Atom+Function  
  ----- ------------  ---------------      ----- ------------  ---------------
    60      9.017283  2 O  s                  5     -5.446558  1 N  s          
   115      5.266772  3 O  s                 33     -4.912144  1 N  dyy        
     4     -4.119214  1 N  s                 30     -3.569213  1 N  dxx        
    35     -3.060160  1 N  dzz              223     -2.719435  5 H  s          
   169      2.357651  4 O  s                 16     -2.103807  1 N  py         

 Vector   43  Occ=0.000000D+00  E= 3.668826D-01
              MO Center=  3.2D-01,  3.5D-01,  2.3D-01, r^2= 4.9D+00
   Bfn.  Coefficient  Atom+Function         Bfn.  Coefficient  Atom+Function  
  ----- ------------  ---------------      ----- ------------  ---------------
    60     -3.797819  2 O  s                  5      3.596564  1 N  s          
    32      3.520289  1 N  dxz                4      3.160944  1 N  s          
   115     -2.793459  3 O  s                 67     -1.831347  2 O  px         
    72      1.520407  2 O  pz                31      1.418086  1 N  dxy        
   169     -1.418310  4 O  s                 12      1.378951  1 N  px         

 Vector   44  Occ=0.000000D+00  E= 4.030518D-01
              MO Center=  9.6D-03,  4.9D-02, -3.4D-01, r^2= 5.0D+00
   Bfn.  Coefficient  Atom+Function         Bfn.  Coefficient  Atom+Function  
  ----- ------------  ---------------      ----- ------------  ---------------
    12      3.205894  1 N  px                13     -2.544791  1 N  py         
   223     -2.277652  5 H  s                 34      1.677434  1 N  dyz        
     4     -1.151540  1 N  s                 51     -1.089581  1 N  fxzz       
   169     -0.965507  4 O  s                 46     -0.947202  1 N  fxxx       
    49     -0.924098  1 N  fxyy             222      0.912504  5 H  s          

 Vector   45  Occ=0.000000D+00  E= 4.086183D-01
              MO Center= -2.2D-02, -2.3D-02,  1.2D+00, r^2= 8.0D+00
   Bfn.  Coefficient  Atom+Function         Bfn.  Coefficient  Atom+Function  
  ----- ------------  ---------------      ----- ------------  ---------------
   223     19.655274  5 H  s                 60    -10.620772  2 O  s          
    14      6.322103  1 N  pz               169      6.320006  4 O  s          
   222     -6.014704  5 H  s                 71     -5.251626  2 O  py         
    33     -4.927609  1 N  dyy               31     -4.865357  1 N  dxy        
    59     -4.435999  2 O  s                114      3.921895  3 O  s          

 Vector   46  Occ=0.000000D+00  E= 4.213363D-01
              MO Center= -2.2D-01, -3.5D-01,  7.7D-01, r^2= 5.7D+00
   Bfn.  Coefficient  Atom+Function         Bfn.  Coefficient  Atom+Function  
  ----- ------------  ---------------      ----- ------------  ---------------
   223      6.123657  5 H  s                 31     -3.873004  1 N  dxy        
     4     -3.284836  1 N  s                 60     -3.069319  2 O  s          
    70     -2.616672  2 O  px               169      2.624537  4 O  s          
    30     -2.122386  1 N  dxx               14      1.691690  1 N  pz         
    15      1.660522  1 N  px                12      1.613891  1 N  px         

 Vector   47  Occ=0.000000D+00  E= 4.526188D-01
              MO Center= -1.1D-01, -3.0D-01, -9.0D-01, r^2= 7.1D+00
   Bfn.  Coefficient  Atom+Function         Bfn.  Coefficient  Atom+Function  
  ----- ------------  ---------------      ----- ------------  ---------------
     4     35.954496  1 N  s                 59    -17.290603  2 O  s          
    69     10.880287  2 O  pz                35     10.500597  1 N  dzz        
     5     10.003922  1 N  s                 14      6.347112  1 N  pz         
   114     -5.979620  3 O  s                123      5.739545  3 O  py         
   170     -5.764579  4 O  s                 90     -5.253413  2 O  dzz        

 Vector   48  Occ=0.000000D+00  E= 4.640562D-01
              MO Center=  2.6D-01,  5.8D-01,  8.5D-01, r^2= 6.6D+00
   Bfn.  Coefficient  Atom+Function         Bfn.  Coefficient  Atom+Function  
  ----- ------------  ---------------      ----- ------------  ---------------
     4     29.915936  1 N  s                 60    -14.284970  2 O  s          
   114    -10.795658  3 O  s                  5      9.972639  1 N  s          
   169     -9.654797  4 O  s                223      9.075891  5 H  s          
    31      8.933982  1 N  dxy               33      6.837140  1 N  dyy        
   124     -6.328467  3 O  pz                59     -4.923128  2 O  s          

 Vector   49  Occ=0.000000D+00  E= 5.134604D-01
              MO Center= -2.6D-01,  9.7D-02,  8.7D-01, r^2= 6.2D+00
   Bfn.  Coefficient  Atom+Function         Bfn.  Coefficient  Atom+Function  
  ----- ------------  ---------------      ----- ------------  ---------------
    14     16.009192  1 N  pz                59    -14.280909  2 O  s          
    69     10.885936  2 O  pz                 4      9.386726  1 N  s          
   169      6.781146  4 O  s                 90     -5.891363  2 O  dzz        
   178      3.506036  4 O  py                13      3.350579  1 N  py         
    35      2.760877  1 N  dzz               17     -2.373492  1 N  pz         

 Vector   50  Occ=0.000000D+00  E= 5.171997D-01
              MO Center=  1.8D-01, -1.5D-02,  1.3D+00, r^2= 5.6D+00
   Bfn.  Coefficient  Atom+Function         Bfn.  Coefficient  Atom+Function  
  ----- ------------  ---------------      ----- ------------  ---------------
    14      9.783472  1 N  pz                59     -8.811871  2 O  s          
    69      6.566981  2 O  pz                 4      5.051007  1 N  s          
   114      3.408018  3 O  s                 90     -3.178937  2 O  dzz        
    87      2.911158  2 O  dxz               32      2.722486  1 N  dxz        
    60      2.392818  2 O  s                 35      2.315715  1 N  dzz        

 Vector   51  Occ=0.000000D+00  E= 5.412273D-01
              MO Center= -8.8D-02, -1.8D-01,  3.7D-01, r^2= 7.6D+00
   Bfn.  Coefficient  Atom+Function         Bfn.  Coefficient  Atom+Function  
  ----- ------------  ---------------      ----- ------------  ---------------
     4     18.950104  1 N  s                223     15.072022  5 H  s          
    60    -14.118322  2 O  s                114     -8.185188  3 O  s          
   169     -8.084663  4 O  s                 31      7.509303  1 N  dxy        
   179     -6.667692  4 O  pz                33      6.175187  1 N  dyy        
    14     -5.549007  1 N  pz                34     -4.691670  1 N  dyz        

 Vector   52  Occ=0.000000D+00  E= 5.498099D-01
              MO Center=  1.6D-01,  2.8D-01, -1.4D-01, r^2= 6.6D+00
   Bfn.  Coefficient  Atom+Function         Bfn.  Coefficient  Atom+Function  
  ----- ------------  ---------------      ----- ------------  ---------------
    13     16.135891  1 N  py               114    -14.541307  3 O  s          
    12      9.573574  1 N  px                60      8.725263  2 O  s          
   169      8.128632  4 O  s                123      7.595830  3 O  py         
   223     -7.404849  5 H  s                 14     -5.763744  1 N  pz         
   124     -5.656278  3 O  pz                34     -5.555357  1 N  dyz        

 Vector   53  Occ=0.000000D+00  E= 5.640105D-01
              MO Center=  3.1D-01,  3.9D-01,  6.0D-02, r^2= 7.7D+00
   Bfn.  Coefficient  Atom+Function         Bfn.  Coefficient  Atom+Function  
  ----- ------------  ---------------      ----- ------------  ---------------
    60     24.186226  2 O  s                223    -18.226036  5 H  s          
    34     17.893396  1 N  dyz                5    -12.203074  1 N  s          
   169     -9.986648  4 O  s                 32      9.849391  1 N  dxz        
   114      9.297637  3 O  s                 13     -6.407859  1 N  py         
    68     -5.225098  2 O  py               178     -5.030765  4 O  py         

 Vector   54  Occ=0.000000D+00  E= 5.835247D-01
              MO Center=  1.1D-01,  2.2D-01, -7.8D-01, r^2= 6.5D+00
   Bfn.  Coefficient  Atom+Function         Bfn.  Coefficient  Atom+Function  
  ----- ------------  ---------------      ----- ------------  ---------------
    60      1.760514  2 O  s                223     -1.411512  5 H  s          
    34      1.384689  1 N  dyz               33     -1.268693  1 N  dyy        
   125     -1.264521  3 O  px               197      1.118505  4 O  dxz        
    14      1.058419  1 N  pz               231      1.004779  5 H  px         
    30      0.953983  1 N  dxx               31      0.930998  1 N  dxy        

 Vector   55  Occ=0.000000D+00  E= 6.028966D-01
              MO Center= -3.4D-01, -5.5D-01, -4.1D-01, r^2= 6.0D+00
   Bfn.  Coefficient  Atom+Function         Bfn.  Coefficient  Atom+Function  
  ----- ------------  ---------------      ----- ------------  ---------------
    14      7.416584  1 N  pz               169      6.998232  4 O  s          
     4     -6.689912  1 N  s                 34     -4.415284  1 N  dyz        
   178      4.246046  4 O  py                59     -3.940954  2 O  s          
    69      3.029122  2 O  pz               198      3.034955  4 O  dyy        
     5      2.875147  1 N  s                196      2.618391  4 O  dxy        

 Vector   56  Occ=0.000000D+00  E= 6.142357D-01
              MO Center= -4.6D-02,  1.2D-01,  5.8D-01, r^2= 6.5D+00
   Bfn.  Coefficient  Atom+Function         Bfn.  Coefficient  Atom+Function  
  ----- ------------  ---------------      ----- ------------  ---------------
     4      8.324218  1 N  s                 60     -6.048593  2 O  s          
   223      4.559891  5 H  s                114     -4.081234  3 O  s          
    31      3.725195  1 N  dxy              169     -3.647463  4 O  s          
    14     -2.914865  1 N  pz               123      2.550471  3 O  py         
    86     -1.885881  2 O  dxy              178     -1.804597  4 O  py         

 Vector   57  Occ=0.000000D+00  E= 6.376390D-01
              MO Center= -1.2D-01, -6.7D-02, -3.1D-01, r^2= 7.3D+00
   Bfn.  Coefficient  Atom+Function         Bfn.  Coefficient  Atom+Function  
  ----- ------------  ---------------      ----- ------------  ---------------
     4     23.347504  1 N  s                 60     15.502042  2 O  s          
     5    -13.605121  1 N  s                169    -13.601089  4 O  s          
    34      8.728201  1 N  dyz              223     -8.754410  5 H  s          
   178     -7.732687  4 O  py               170      6.570066  4 O  s          
    13     -4.581941  1 N  py               115      4.311141  3 O  s          

 Vector   58  Occ=0.000000D+00  E= 6.440568D-01
              MO Center=  9.8D-02, -1.2D-01,  1.3D-01, r^2= 6.9D+00
   Bfn.  Coefficient  Atom+Function         Bfn.  Coefficient  Atom+Function  
  ----- ------------  ---------------      ----- ------------  ---------------
     4      9.114692  1 N  s                 60      8.582931  2 O  s          
     5     -6.651620  1 N  s                223     -5.079634  5 H  s          
   169     -4.308140  4 O  s                 34      3.074980  1 N  dyz        
   170      2.918158  4 O  s                 15     -2.662329  1 N  px         
    59     -2.278397  2 O  s                177     -2.219553  4 O  px         

 Vector   59  Occ=0.000000D+00  E= 6.642300D-01
              MO Center=  1.7D-01,  3.4D-01, -2.3D-01, r^2= 7.0D+00
   Bfn.  Coefficient  Atom+Function         Bfn.  Coefficient  Atom+Function  
  ----- ------------  ---------------      ----- ------------  ---------------
     4     15.074919  1 N  s                114     -9.992282  3 O  s          
    34     -6.689158  1 N  dyz              115      5.910757  3 O  s          
    59     -5.610883  2 O  s                123      5.049947  3 O  py         
    60     -4.659485  2 O  s                222      3.796916  5 H  s          
   143     -3.726611  3 O  dyy               32     -3.492459  1 N  dxz        

 Vector   60  Occ=0.000000D+00  E= 6.831741D-01
              MO Center=  5.1D-02,  2.8D-02, -4.2D-01, r^2= 4.8D+00
   Bfn.  Coefficient  Atom+Function         Bfn.  Coefficient  Atom+Function  
  ----- ------------  ---------------      ----- ------------  ---------------
   142      1.689066  3 O  dxz              122      1.523005  3 O  px         
    33      1.505204  1 N  dyy              114     -1.333615  3 O  s          
    30     -1.254185  1 N  dxx               31     -1.244495  1 N  dxy        
    32     -1.102252  1 N  dxz                4      1.044221  1 N  s          
    34     -1.045468  1 N  dyz              222      0.890029  5 H  s          

 Vector   61  Occ=0.000000D+00  E= 6.949564D-01
              MO Center=  1.6D-01,  2.9D-01,  1.6D-01, r^2= 5.7D+00
   Bfn.  Coefficient  Atom+Function         Bfn.  Coefficient  Atom+Function  
  ----- ------------  ---------------      ----- ------------  ---------------
     4      9.539824  1 N  s                 59     -5.898776  2 O  s          
    14     -3.894793  1 N  pz               170     -2.761903  4 O  s          
    90     -2.634785  2 O  dzz               13     -2.545736  1 N  py         
   114     -2.551861  3 O  s                169     -2.539891  4 O  s          
   222      2.538244  5 H  s                223      2.520088  5 H  s          

 Vector   62  Occ=0.000000D+00  E= 6.969918D-01
              MO Center=  7.3D-02,  2.1D-01,  1.5D-01, r^2= 5.7D+00
   Bfn.  Coefficient  Atom+Function         Bfn.  Coefficient  Atom+Function  
  ----- ------------  ---------------      ----- ------------  ---------------
     4     14.286868  1 N  s                 59     -8.049189  2 O  s          
    90     -3.457183  2 O  dzz               13     -3.260425  1 N  py         
   114     -3.201708  3 O  s                 69      3.147564  2 O  pz         
   169     -2.773748  4 O  s                 31      2.750159  1 N  dxy        
    32     -2.676939  1 N  dxz              123      2.433061  3 O  py         

 Vector   63  Occ=0.000000D+00  E= 7.321887D-01
              MO Center=  4.9D-02,  1.3D-01,  6.7D-01, r^2= 6.2D+00
   Bfn.  Coefficient  Atom+Function         Bfn.  Coefficient  Atom+Function  
  ----- ------------  ---------------      ----- ------------  ---------------
    59     -6.781043  2 O  s                  4      6.728505  1 N  s          
   170      6.115201  4 O  s                 60     -5.830206  2 O  s          
    13     -4.595786  1 N  py               222      4.599974  5 H  s          
   169     -3.931484  4 O  s                 89     -2.953715  2 O  dyz        
    17      2.886165  1 N  pz                14      2.445297  1 N  pz         

 Vector   64  Occ=0.000000D+00  E= 7.395034D-01
              MO Center= -1.6D-01,  2.9D-01,  1.9D-01, r^2= 6.9D+00
   Bfn.  Coefficient  Atom+Function         Bfn.  Coefficient  Atom+Function  
  ----- ------------  ---------------      ----- ------------  ---------------
   170     -8.043966  4 O  s                  5      7.346428  1 N  s          
   115     -7.203590  3 O  s                 60      7.000756  2 O  s          
   223     -5.731339  5 H  s                 17     -4.081012  1 N  pz         
     4     -3.524601  1 N  s                 12      3.471945  1 N  px         
    59      2.952231  2 O  s                 34      2.504762  1 N  dyz        

 Vector   65  Occ=0.000000D+00  E= 7.489397D-01
              MO Center=  1.6D-02, -7.1D-02,  1.2D+00, r^2= 6.7D+00
   Bfn.  Coefficient  Atom+Function         Bfn.  Coefficient  Atom+Function  
  ----- ------------  ---------------      ----- ------------  ---------------
     5     16.812414  1 N  s                 60    -15.700784  2 O  s          
   223     -5.596620  5 H  s                169     -5.308929  4 O  s          
    17      5.084009  1 N  pz                90      4.466401  2 O  dzz        
    31      4.236705  1 N  dxy               72      3.699930  2 O  pz         
    34      3.162526  1 N  dyz               85      3.037696  2 O  dxx        

 Vector   66  Occ=0.000000D+00  E= 7.643677D-01
              MO Center=  3.3D-01,  4.5D-01, -2.3D-01, r^2= 7.9D+00
   Bfn.  Coefficient  Atom+Function         Bfn.  Coefficient  Atom+Function  
  ----- ------------  ---------------      ----- ------------  ---------------
   115     15.161625  3 O  s                  5     -9.106763  1 N  s          
   170     -7.329170  4 O  s                 60      5.606538  2 O  s          
    16     -4.465434  1 N  py                59      3.492674  2 O  s          
    15     -2.982405  1 N  px               222     -2.878830  5 H  s          
    72     -2.744852  2 O  pz               143     -2.510530  3 O  dyy        

 Vector   67  Occ=0.000000D+00  E= 7.700675D-01
              MO Center=  3.9D-02,  1.6D-01,  3.8D-01, r^2= 7.5D+00
   Bfn.  Coefficient  Atom+Function         Bfn.  Coefficient  Atom+Function  
  ----- ------------  ---------------      ----- ------------  ---------------
    60     11.962668  2 O  s                170     -8.129564  4 O  s          
    59     -7.720344  2 O  s                223     -7.417360  5 H  s          
    34      6.398859  1 N  dyz               14      6.207672  1 N  pz         
   222      5.090550  5 H  s                169     -4.821214  4 O  s          
    17     -4.507784  1 N  pz                16     -3.579193  1 N  py         

 Vector   68  Occ=0.000000D+00  E= 8.054296D-01
              MO Center=  9.4D-02,  4.3D-01,  1.3D+00, r^2= 5.4D+00
   Bfn.  Coefficient  Atom+Function         Bfn.  Coefficient  Atom+Function  
  ----- ------------  ---------------      ----- ------------  ---------------
    13     10.876120  1 N  py                59    -10.860706  2 O  s          
     4      9.041329  1 N  s                 14      7.287651  1 N  pz         
   169      7.136443  4 O  s                114     -5.909473  3 O  s          
    12      5.517600  1 N  px                69      4.788699  2 O  pz         
    68     -3.990521  2 O  py               178      3.353990  4 O  py         

 Vector   69  Occ=0.000000D+00  E= 8.597818D-01
              MO Center=  1.1D-01,  2.4D-01,  9.9D-01, r^2= 5.1D+00
   Bfn.  Coefficient  Atom+Function         Bfn.  Coefficient  Atom+Function  
  ----- ------------  ---------------      ----- ------------  ---------------
    14     14.155614  1 N  pz                59     -9.090256  2 O  s          
    69      5.240218  2 O  pz                 4      4.916038  1 N  s          
   223      4.425863  5 H  s                169      3.938533  4 O  s          
   114      3.677132  3 O  s                 35      3.301519  1 N  dzz        
    31     -3.116820  1 N  dxy               90     -2.566981  2 O  dzz        

 Vector   70  Occ=0.000000D+00  E= 8.832951D-01
              MO Center= -2.9D-03,  2.0D-01,  4.9D-01, r^2= 5.6D+00
   Bfn.  Coefficient  Atom+Function         Bfn.  Coefficient  Atom+Function  
  ----- ------------  ---------------      ----- ------------  ---------------
    14     15.754716  1 N  pz                 4     14.663827  1 N  s          
    59    -12.261340  2 O  s                 33      9.739156  1 N  dyy        
    35      7.334656  1 N  dzz              169     -7.233743  4 O  s          
    31      7.118057  1 N  dxy               60     -6.372054  2 O  s          
    12     -5.857906  1 N  px               124     -5.372897  3 O  pz         

 Vector   71  Occ=0.000000D+00  E= 9.102424D-01
              MO Center=  1.2D-01,  1.2D-01,  6.4D-01, r^2= 5.5D+00
   Bfn.  Coefficient  Atom+Function         Bfn.  Coefficient  Atom+Function  
  ----- ------------  ---------------      ----- ------------  ---------------
    14     14.002827  1 N  pz                31    -12.409616  1 N  dxy        
   114     12.302051  3 O  s                  4    -12.191009  1 N  s          
    33    -11.300047  1 N  dyy              169     11.276341  4 O  s          
   223     11.221120  5 H  s                222     -7.209811  5 H  s          
   124      5.629342  3 O  pz                59     -5.580903  2 O  s          

 Vector   72  Occ=0.000000D+00  E= 9.141888D-01
              MO Center=  2.2D-01,  1.7D-01,  3.8D-01, r^2= 5.1D+00
   Bfn.  Coefficient  Atom+Function         Bfn.  Coefficient  Atom+Function  
  ----- ------------  ---------------      ----- ------------  ---------------
    14     16.676600  1 N  pz               114     12.436181  3 O  s          
     4    -12.103963  1 N  s                 33     -9.742215  1 N  dyy        
   223      8.823905  5 H  s                169      7.792969  4 O  s          
    31     -6.740572  1 N  dxy               32      6.088599  1 N  dxz        
   222     -5.289569  5 H  s                122     -4.751399  3 O  px         

 Vector   73  Occ=0.000000D+00  E= 9.192249D-01
              MO Center=  9.7D-02,  2.9D-01, -2.5D-01, r^2= 6.1D+00
   Bfn.  Coefficient  Atom+Function         Bfn.  Coefficient  Atom+Function  
  ----- ------------  ---------------      ----- ------------  ---------------
     4     24.089258  1 N  s                 59    -21.533546  2 O  s          
    35     15.332268  1 N  dzz               14     13.308166  1 N  pz         
    69     12.418890  2 O  pz                90     -5.840784  2 O  dzz        
   178     -5.006418  4 O  py                85     -4.815771  2 O  dxx        
    88     -4.636407  2 O  dyy               13     -4.409206  1 N  py         

 Vector   74  Occ=0.000000D+00  E= 9.602354D-01
              MO Center= -2.0D-02, -1.0D-01, -7.5D-02, r^2= 6.0D+00
   Bfn.  Coefficient  Atom+Function         Bfn.  Coefficient  Atom+Function  
  ----- ------------  ---------------      ----- ------------  ---------------
    13     26.910488  1 N  py                34    -21.863331  1 N  dyz        
   114    -19.852081  3 O  s                169     17.813200  4 O  s          
     4     17.199006  1 N  s                 12     13.223074  1 N  px         
    59     -9.329741  2 O  s                 32     -9.187141  1 N  dxz        
   123      8.349570  3 O  py                14      8.166541  1 N  pz         

 Vector   75  Occ=0.000000D+00  E= 9.652234D-01
              MO Center= -1.1D-03,  1.1D-02, -6.8D-02, r^2= 5.0D+00
   Bfn.  Coefficient  Atom+Function         Bfn.  Coefficient  Atom+Function  
  ----- ------------  ---------------      ----- ------------  ---------------
    32     10.704714  1 N  dxz               12     -6.716348  1 N  px         
   114      6.380161  3 O  s                 13     -6.149891  1 N  py         
   123     -5.900091  3 O  py                 4     -5.651587  1 N  s          
   169     -5.289645  4 O  s                 67     -4.770421  2 O  px         
   122      4.501905  3 O  px                14     -4.036342  1 N  pz         

 Vector   76  Occ=0.000000D+00  E= 9.699667D-01
              MO Center=  1.9D-01,  2.4D-01,  7.0D-01, r^2= 5.5D+00
   Bfn.  Coefficient  Atom+Function         Bfn.  Coefficient  Atom+Function  
  ----- ------------  ---------------      ----- ------------  ---------------
    34     16.198442  1 N  dyz               14    -13.367051  1 N  pz         
    32      9.511285  1 N  dxz               59      8.625701  2 O  s          
   169     -8.642810  4 O  s                 89      8.154583  2 O  dyz        
   223      7.438446  5 H  s                 68     -6.121938  2 O  py         
   124     -6.119125  3 O  pz                31      5.599956  1 N  dxy        

 Vector   77  Occ=0.000000D+00  E= 9.920722D-01
              MO Center= -1.7D-01,  2.5D-01,  6.2D-01, r^2= 5.2D+00
   Bfn.  Coefficient  Atom+Function         Bfn.  Coefficient  Atom+Function  
  ----- ------------  ---------------      ----- ------------  ---------------
   223      8.799450  5 H  s                 12      7.976936  1 N  px         
    60     -7.080882  2 O  s                  4      6.077324  1 N  s          
    13      5.973084  1 N  py               114     -5.104093  3 O  s          
   177     -5.020483  4 O  px               178      4.554005  4 O  py         
    33      4.428601  1 N  dyy               59     -3.721978  2 O  s          

 Vector   78  Occ=0.000000D+00  E= 9.940387D-01
              MO Center= -3.6D-03,  1.0D-02,  4.4D-01, r^2= 5.5D+00
   Bfn.  Coefficient  Atom+Function         Bfn.  Coefficient  Atom+Function  
  ----- ------------  ---------------      ----- ------------  ---------------
     4     21.438074  1 N  s                 60    -14.838068  2 O  s          
   223     13.680150  5 H  s                 31      9.923641  1 N  dxy        
   179     -7.997156  4 O  pz                 5      7.169992  1 N  s          
    35     -6.922891  1 N  dzz               69      6.930995  2 O  pz         
    59     -6.868266  2 O  s                 90     -6.126292  2 O  dzz        

 Vector   79  Occ=0.000000D+00  E= 1.043329D+00
              MO Center=  2.6D-02,  6.2D-02, -3.1D-01, r^2= 5.8D+00
   Bfn.  Coefficient  Atom+Function         Bfn.  Coefficient  Atom+Function  
  ----- ------------  ---------------      ----- ------------  ---------------
     4     65.998797  1 N  s                 59    -18.681646  2 O  s          
   169    -17.538147  4 O  s                178    -14.830837  4 O  py         
    69     13.882559  2 O  pz               123     13.670280  3 O  py         
   114    -12.234606  3 O  s                 35     11.671619  1 N  dzz        
     5     10.191988  1 N  s                177     -7.923444  4 O  px         

 Vector   80  Occ=0.000000D+00  E= 1.091991D+00
              MO Center=  1.5D-01,  5.3D-01,  8.8D-01, r^2= 5.4D+00
   Bfn.  Coefficient  Atom+Function         Bfn.  Coefficient  Atom+Function  
  ----- ------------  ---------------      ----- ------------  ---------------
   223     25.954089  5 H  s                 60    -21.920476  2 O  s          
     4    -18.583996  1 N  s                 34    -17.097751  1 N  dyz        
   124      9.217208  3 O  pz                32     -8.442130  1 N  dxz        
    68      8.169349  2 O  py                13     -6.851127  1 N  py         
   179     -5.451289  4 O  pz               169      4.904131  4 O  s          

 Vector   81  Occ=0.000000D+00  E= 1.132535D+00
              MO Center= -2.4D-02,  1.8D-02,  4.9D-01, r^2= 6.0D+00
   Bfn.  Coefficient  Atom+Function         Bfn.  Coefficient  Atom+Function  
  ----- ------------  ---------------      ----- ------------  ---------------
     4     26.948126  1 N  s                169    -24.468365  4 O  s          
    14    -22.598619  1 N  pz                31     12.423678  1 N  dxy        
   178    -11.555612  4 O  py                13    -11.081999  1 N  py         
   114    -10.986615  3 O  s                 60     -9.795183  2 O  s          
    33      9.585570  1 N  dyy              223      9.348608  5 H  s          

 Vector   82  Occ=0.000000D+00  E= 1.166901D+00
              MO Center= -2.8D-02,  8.2D-02,  4.3D-01, r^2= 5.0D+00
   Bfn.  Coefficient  Atom+Function         Bfn.  Coefficient  Atom+Function  
  ----- ------------  ---------------      ----- ------------  ---------------
    59     32.810783  2 O  s                 69    -29.300077  2 O  pz         
    14    -28.124187  1 N  pz                 4    -20.339380  1 N  s          
    90     11.730829  2 O  dzz              169    -10.729378  4 O  s          
   178     -9.811825  4 O  py                35     -5.655554  1 N  dzz        
   179     -5.199294  4 O  pz               123      5.106598  3 O  py         

 Vector   83  Occ=0.000000D+00  E= 1.201188D+00
              MO Center=  6.8D-02, -1.8D-02, -9.4D-02, r^2= 3.1D+00
   Bfn.  Coefficient  Atom+Function         Bfn.  Coefficient  Atom+Function  
  ----- ------------  ---------------      ----- ------------  ---------------
    13      4.934989  1 N  py                51      3.181578  1 N  fxzz       
   169      2.934137  4 O  s                 46      2.661484  1 N  fxxx       
    49      2.598724  1 N  fxyy             178      2.608733  4 O  py         
    60      2.535547  2 O  s                223     -2.374483  5 H  s          
   179      2.190841  4 O  pz                54     -1.794294  1 N  fyzz       

 Vector   84  Occ=0.000000D+00  E= 1.217787D+00
              MO Center= -3.8D-02,  1.0D-01,  6.7D-01, r^2= 4.7D+00
   Bfn.  Coefficient  Atom+Function         Bfn.  Coefficient  Atom+Function  
  ----- ------------  ---------------      ----- ------------  ---------------
    69     30.609133  2 O  pz                 4     30.401224  1 N  s          
    14     21.226886  1 N  pz                59    -20.882011  2 O  s          
    90    -12.976431  2 O  dzz              114      7.909275  3 O  s          
    34      7.259553  1 N  dyz              222     -6.850911  5 H  s          
   223      6.442065  5 H  s                 89      5.231236  2 O  dyz        

 Vector   85  Occ=0.000000D+00  E= 1.237612D+00
              MO Center=  8.8D-02,  2.1D-01, -1.4D-01, r^2= 5.2D+00
   Bfn.  Coefficient  Atom+Function         Bfn.  Coefficient  Atom+Function  
  ----- ------------  ---------------      ----- ------------  ---------------
   114     30.014797  3 O  s                 13    -23.618938  1 N  py         
   123    -20.576100  3 O  py               169    -19.261764  4 O  s          
    34     18.709305  1 N  dyz               12    -14.682870  1 N  px         
   178    -14.311055  4 O  py               122    -12.452288  3 O  px         
   124     11.376253  3 O  pz               223    -11.109356  5 H  s          

 Vector   86  Occ=0.000000D+00  E= 1.256050D+00
              MO Center=  6.0D-02, -1.2D-01,  5.1D-01, r^2= 4.3D+00
   Bfn.  Coefficient  Atom+Function         Bfn.  Coefficient  Atom+Function  
  ----- ------------  ---------------      ----- ------------  ---------------
   169     13.600540  4 O  s                 14     12.939086  1 N  pz         
    59     -9.738120  2 O  s                179      8.000402  4 O  pz         
    13      6.792396  1 N  py               177      6.444235  4 O  px         
    69      6.148646  2 O  pz               178      6.135065  4 O  py         
    33     -5.866488  1 N  dyy               90     -4.859914  2 O  dzz        

 Vector   87  Occ=0.000000D+00  E= 1.264982D+00
              MO Center= -8.6D-03, -8.3D-02, -2.0D-01, r^2= 4.8D+00
   Bfn.  Coefficient  Atom+Function         Bfn.  Coefficient  Atom+Function  
  ----- ------------  ---------------      ----- ------------  ---------------
     4     12.947299  1 N  s                114    -12.632519  3 O  s          
    14    -11.513605  1 N  pz                31     10.568976  1 N  dxy        
   124     -9.456861  3 O  pz                33      8.556842  1 N  dyy        
   179     -8.218394  4 O  pz                35     -7.810218  1 N  dzz        
    13      6.264386  1 N  py                53      6.190914  1 N  fyyz       

 Vector   88  Occ=0.000000D+00  E= 1.307023D+00
              MO Center=  4.1D-02,  1.6D-01,  4.4D-01, r^2= 3.5D+00
   Bfn.  Coefficient  Atom+Function         Bfn.  Coefficient  Atom+Function  
  ----- ------------  ---------------      ----- ------------  ---------------
     4     10.862493  1 N  s                169     -8.080690  4 O  s          
    13     -6.698664  1 N  py               178     -5.490271  4 O  py         
    32      5.116502  1 N  dxz               34      4.386571  1 N  dyz        
   222     -4.213417  5 H  s                 67     -4.079541  2 O  px         
    69      3.786098  2 O  pz                68      3.392773  2 O  py         

 Vector   89  Occ=0.000000D+00  E= 1.324433D+00
              MO Center=  3.0D-02,  6.2D-02,  6.1D-01, r^2= 5.1D+00
   Bfn.  Coefficient  Atom+Function         Bfn.  Coefficient  Atom+Function  
  ----- ------------  ---------------      ----- ------------  ---------------
    13     24.045787  1 N  py               169     23.815916  4 O  s          
    34    -14.993507  1 N  dyz              178     13.993390  4 O  py         
    12     12.840940  1 N  px                59    -11.946241  2 O  s          
   222     11.887696  5 H  s                114    -11.447010  3 O  s          
   179     10.635029  4 O  pz                 4     -9.145176  1 N  s          

 Vector   90  Occ=0.000000D+00  E= 1.391155D+00
              MO Center=  7.9D-02,  2.1D-01,  6.1D-01, r^2= 3.8D+00
   Bfn.  Coefficient  Atom+Function         Bfn.  Coefficient  Atom+Function  
  ----- ------------  ---------------      ----- ------------  ---------------
    87      4.041874  2 O  dxz                4      3.190277  1 N  s          
    31     -3.162513  1 N  dxy              122      2.905180  3 O  px         
    14      2.837212  1 N  pz                59     -2.686791  2 O  s          
   177     -2.667829  4 O  px                86      2.579986  2 O  dxy        
    30     -2.476389  1 N  dxx               13     -2.292885  1 N  py         

 Vector   91  Occ=0.000000D+00  E= 1.409578D+00
              MO Center=  6.6D-02,  1.7D-01,  2.3D-01, r^2= 4.8D+00
   Bfn.  Coefficient  Atom+Function         Bfn.  Coefficient  Atom+Function  
  ----- ------------  ---------------      ----- ------------  ---------------
     4     44.112291  1 N  s                169    -17.081032  4 O  s          
[...]
  ----- ------------  ---------------      ----- ------------  ---------------
     4     40.162521  1 N  s                169    -22.324800  4 O  s          
    14    -19.341281  1 N  pz               114    -16.297520  3 O  s          
   178    -13.592080  4 O  py               179    -12.011778  4 O  pz         
    57     11.458130  2 O  s                 31     10.436439  1 N  dxy        
   123     10.320126  3 O  py               124     -8.790064  3 O  pz         

 Vector  240  Occ=0.000000D+00  E= 1.674185D+01
              MO Center=  1.9D-01,  3.0D-01, -5.6D-01, r^2= 1.7D+00
   Bfn.  Coefficient  Atom+Function         Bfn.  Coefficient  Atom+Function  
  ----- ------------  ---------------      ----- ------------  ---------------
   114     13.034524  3 O  s                169    -12.703532  4 O  s          
   112      8.489604  3 O  s                167     -5.800710  4 O  s          
    13     -5.329458  1 N  py               139     -4.183507  3 O  dzz        
   115      4.091918  3 O  s                178     -4.060752  4 O  py         
   134     -4.030503  3 O  dxx              137     -3.716068  3 O  dyy        

 Vector  241  Occ=0.000000D+00  E= 1.677144D+01
              MO Center= -1.4D-01, -2.7D-01, -3.8D-01, r^2= 1.8D+00
   Bfn.  Coefficient  Atom+Function         Bfn.  Coefficient  Atom+Function  
  ----- ------------  ---------------      ----- ------------  ---------------
     4     19.740296  1 N  s                167      8.779153  4 O  s          
   112      6.521480  3 O  s                178     -5.638238  4 O  py         
   123      4.826749  3 O  py                57      4.802711  2 O  s          
   194     -4.651523  4 O  dzz              189     -4.281960  4 O  dxx        
   198     -4.246517  4 O  dyy              192     -4.192052  4 O  dyy        

 Vector  242  Occ=0.000000D+00  E= 1.700282D+01
              MO Center= -9.6D-02, -3.0D-02,  1.2D+00, r^2= 9.8D-01
   Bfn.  Coefficient  Atom+Function         Bfn.  Coefficient  Atom+Function  
  ----- ------------  ---------------      ----- ------------  ---------------
    14     13.124067  1 N  pz                 4    -11.238345  1 N  s          
    69      9.099260  2 O  pz                66      7.800757  2 O  pz         
    59      7.696295  2 O  s                 90     -6.979430  2 O  dzz        
   169      6.576299  4 O  s                 84     -5.526873  2 O  dzz        
    60      5.483464  2 O  s                 79     -5.251447  2 O  dxx        

 Vector  243  Occ=0.000000D+00  E= 1.866749D+01
              MO Center=  1.1D-01,  1.8D-01, -4.1D-01, r^2= 2.0D+00
   Bfn.  Coefficient  Atom+Function         Bfn.  Coefficient  Atom+Function  
  ----- ------------  ---------------      ----- ------------  ---------------
    13     31.464349  1 N  py               169     25.226122  4 O  s          
   178     18.587995  4 O  py               114    -17.916670  3 O  s          
    12     17.164966  1 N  px               123     15.968404  3 O  py         
   120     11.796362  3 O  py               179     11.018859  4 O  pz         
   177      9.599694  4 O  px                10      9.369863  1 N  py         

 Vector  244  Occ=0.000000D+00  E= 2.308255D+01
              MO Center= -6.8D-02, -1.4D-01, -3.0D-01, r^2= 2.9D+00
   Bfn.  Coefficient  Atom+Function         Bfn.  Coefficient  Atom+Function  
  ----- ------------  ---------------      ----- ------------  ---------------
     4     26.339163  1 N  s                 14    -18.705593  1 N  pz         
   169    -17.893840  4 O  s                 50    -15.419935  1 N  fxyz       
    31     13.162419  1 N  dxy              167    -12.915458  4 O  s          
    33     12.513220  1 N  dyy               53    -11.461459  1 N  fyyz       
   178    -10.846601  4 O  py               112    -10.077876  3 O  s          

 Vector  245  Occ=0.000000D+00  E= 2.718041D+01
              MO Center= -1.9D-02, -3.6D-02, -1.9D-01, r^2= 1.8D+00
   Bfn.  Coefficient  Atom+Function         Bfn.  Coefficient  Atom+Function  
  ----- ------------  ---------------      ----- ------------  ---------------
     4     38.042035  1 N  s                  2    -24.128242  1 N  s          
    25    -13.245091  1 N  dxy                1    -12.084951  1 N  s          
    53     10.851735  1 N  fyyz              50     10.452824  1 N  fxyz       
    31     10.123180  1 N  dxy              123     10.173330  3 O  py         
   114    -10.033120  3 O  s                175     10.076478  4 O  py         


 center of mass
 --------------
 x =  -0.02514593 y =   0.00452197 z =   0.14059616

 moments of inertia (a.u.)
 ------------------
         261.618460205506         -59.494105452412           6.262805784260
         -59.494105452412         186.497712273093          -5.370034639038
           6.262805784260          -5.370034639038         141.568570723714

     Multipole analysis of the density
     ---------------------------------

     L   x y z        total         alpha         beta         nuclear
     -   - - -        -----         -----         ----         -------
     0   0 0 0     -0.000000    -16.000000    -16.000000     32.000000

     1   1 0 0      0.210570      0.355046      0.355046     -0.499522
     1   0 1 0      0.451381     -0.203878     -0.203878      0.859138
     1   0 0 1      0.637335     -2.669426     -2.669426      5.976187

     2   2 0 0    -16.329819    -16.569875    -16.569875     16.809931
     2   1 1 0     -0.777094    -15.476503    -15.476503     30.175912
     2   1 0 1      1.005363      1.668382      1.668382     -2.331400
     2   0 2 0    -17.024148    -36.124957    -36.124957     55.225765
     2   0 1 1      1.858885     -1.540401     -1.540401      4.939687
     2   0 0 2    -15.706438    -48.904494    -48.904494     82.102550

 Line search: 
     step= 1.00 grad=-4.5D-07 hess= 2.4D-07 energy=   -280.755849 mode=accept  
 new step= 1.00                   predicted energy=   -280.755849

          --------
          Step  10
          --------


                         Geometry "geometry" -> "geometry"
                         ---------------------------------

 Output coordinates in angstroms (scale by  1.889725989 to convert to a.u.)

  No.       Tag          Charge          X              Y              Z
 ---- ---------------- ---------- -------------- -------------- --------------
    1 N                    7.0000    -0.00855544    -0.00421307    -0.06557376
    2 O                    8.0000    -0.12938680    -0.06625416     1.37355706
    3 O                    8.0000     0.56027204     0.97869085    -0.49937267
    4 O                    8.0000    -0.49548320    -0.94750544    -0.62768498
    5 H                    1.0000     0.31233607     0.76467754     1.64948340

      Atomic Mass 
      ----------- 

      N                 14.003070
      O                 15.994910
      H                  1.007825


 Effective nuclear repulsion energy (a.u.)     124.8848263419

            Nuclear Dipole moment (a.u.) 
            ----------------------------
        X                 Y               Z
 ---------------- ---------------- ----------------
    -0.4995219850     0.8591375015     5.9761873971


                                 NWChem DFT Module
                                 -----------------




 Summary of "ao basis" -> "ao basis" (cartesian)
 ------------------------------------------------------------------------------
       Tag                 Description            Shells   Functions and Types
 ---------------- ------------------------------  ------  ---------------------
 N                        aug-cc-pVTZ               14       55   5s4p3d2f
 O                        aug-cc-pVTZ               14       55   5s4p3d2f
 H                        aug-cc-pVTZ                9       25   4s3p2d



  The DFT is already converged 

         Total DFT energy =   -280.755848885901


            General Information
            -------------------
          SCF calculation type: DFT
          Wavefunction type:  closed shell.
          No. of atoms     :     5
          No. of electrons :    32
           Alpha electrons :    16
            Beta electrons :    16
          Charge           :     0
          Spin multiplicity:     1
          Use of symmetry is: off; symmetry adaption is: off
          Maximum number of iterations: 200
          AO basis - number of functions:   245
                     number of shells:    65
          Convergence on energy requested:  1.00D-06
          Convergence on density requested:  1.00D-05
          Convergence on gradient requested:  5.00D-04

              XC Information
              --------------
          PerdewBurkeErnzerhof Exchange Functional  1.000          
            Perdew 1991 LDA Correlation Functional  1.000 local    
           PerdewBurkeErnz. Correlation Functional  1.000 non-local

             Grid Information
             ----------------
          Grid used for XC integration:  medium    
          Radial quadrature: Mura-Knowles        
          Angular quadrature: Lebedev. 
          Tag              B.-S. Rad. Rad. Pts. Rad. Cut. Ang. Pts.
          ---              ---------- --------- --------- ---------
          N                   0.65       49          12.0       434
          O                   0.60       49          13.0       434
          H                   0.35       45          12.0       434
          Grid pruning is: on 
          Number of quadrature shells:   241
          Spatial weights used:  Erf1

          Convergence Information
          -----------------------
          Convergence aids based upon iterative change in 
          total energy or number of iterations. 
          Levelshifting, if invoked, occurs when the 
          HOMO/LUMO gap drops below (HL_TOL):  1.00D-02
          DIIS, if invoked, will attempt to extrapolate 
          using up to (NFOCK): 10 stored Fock matrices.

                    Damping(40%)  Levelshifting(0.0)       DIIS
                  --------------- ------------------- ---------------
          dE  on:    start            ASAP                start   
          dE off:  200 iters        200 iters           200 iters 


      Screening Tolerance Information
      -------------------------------
          Density screening/tol_rho:  1.00D-10
          AO Gaussian exp screening on grid/accAOfunc:  14
          CD Gaussian exp screening on grid/accCDfunc:  20
          XC Gaussian exp screening on grid/accXCfunc:  20
          Schwarz screening/accCoul:  1.00D-08



                            NWChem DFT Gradient Module
                            --------------------------



  charge          =   0.00
  wavefunction    = closed shell



                         DFT ENERGY GRADIENTS

    atom               coordinates                        gradient
                 x          y          z           x          y          z
   1 N      -0.016167  -0.007962  -0.123916    0.000128   0.000250  -0.000119
   2 O      -0.244506  -0.125202   2.595646    0.000017   0.000005  -0.000016
   3 O       1.058761   1.849458  -0.943678   -0.000105  -0.000194   0.000100
   4 O      -0.936327  -1.790526  -1.186153   -0.000025  -0.000049   0.000015
   5 H       0.590230   1.445031   3.117072   -0.000016  -0.000012   0.000019

                 ----------------------------------------
                 |  Time  |  1-e(secs)   |  2-e(secs)   |
                 ----------------------------------------
                 |  CPU   |       0.00   |       4.24   |
                 ----------------------------------------
                 |  WALL  |       0.00   |       4.26   |
                 ----------------------------------------

  Step       Energy      Delta E   Gmax     Grms     Xrms     Xmax   Walltime
  ---- ---------------- -------- -------- -------- -------- -------- --------
@   10    -280.75584889 -2.1D-07  0.00025  0.00010  0.00072  0.00148    292.4
                                     ok       ok       ok       ok  


      ----------------------
      Optimization converged
      ----------------------


  Step       Energy      Delta E   Gmax     Grms     Xrms     Xmax   Walltime
  ---- ---------------- -------- -------- -------- -------- -------- --------
@   10    -280.75584889 -2.1D-07  0.00025  0.00010  0.00072  0.00148    292.4
                                     ok       ok       ok       ok  



                         Geometry "geometry" -> "geometry"
                         ---------------------------------

 Output coordinates in angstroms (scale by  1.889725989 to convert to a.u.)

  No.       Tag          Charge          X              Y              Z
 ---- ---------------- ---------- -------------- -------------- --------------
    1 N                    7.0000    -0.00855544    -0.00421307    -0.06557376
    2 O                    8.0000    -0.12938680    -0.06625416     1.37355706
    3 O                    8.0000     0.56027204     0.97869085    -0.49937267
    4 O                    8.0000    -0.49548320    -0.94750544    -0.62768498
    5 H                    1.0000     0.31233607     0.76467754     1.64948340

      Atomic Mass 
      ----------- 

      N                 14.003070
      O                 15.994910
      H                  1.007825


 Effective nuclear repulsion energy (a.u.)     124.8848263419

            Nuclear Dipole moment (a.u.) 
            ----------------------------
        X                 Y               Z
 ---------------- ---------------- ----------------
    -0.4995219850     0.8591375015     5.9761873971

 ==============================================================================
                                internuclear distances
 ------------------------------------------------------------------------------
       center one      |      center two      | atomic units |  angstroms
 ------------------------------------------------------------------------------
    2 O                |   1 N                |     2.73165  |     1.44553
    3 O                |   1 N                |     2.29728  |     1.21567
    4 O                |   1 N                |     2.26993  |     1.20119
    5 H                |   2 O                |     1.85319  |     0.98066
 ------------------------------------------------------------------------------
                         number of included internuclear distances:          4
 ==============================================================================



 ==============================================================================
                                 internuclear angles
 ------------------------------------------------------------------------------
        center 1       |       center 2       |       center 3       |  degrees
 ------------------------------------------------------------------------------
    2 O                |   1 N                |   3 O                |   115.41
    2 O                |   1 N                |   4 O                |   113.47
    3 O                |   1 N                |   4 O                |   131.12
    1 N                |   2 O                |   5 H                |   101.89
 ------------------------------------------------------------------------------
                            number of included internuclear angles:          4
 ==============================================================================




 Task  times  cpu:      287.6s     wall:      292.2s


                                NWChem Input Module
                                -------------------


 Summary of allocated global arrays
-----------------------------------
  No active global arrays


MA_summarize_allocated_blocks: starting scan ...
MA_summarize_allocated_blocks: scan completed: 0 heap blocks, 0 stack blocks
MA usage statistics:

	allocation statistics:
					      heap	     stack
					      ----	     -----
	current number of blocks	         0	         0
	maximum number of blocks	        24	        53
	current total bytes		         0	         0
	maximum total bytes		 268875424	  42597720
	maximum total K-bytes		    268876	     42598
	maximum total M-bytes		       269	        43


                                     CITATION
                                     --------
                Please cite the following reference when publishing
                           results obtained with NWChem:

          E. Apra, E. J. Bylaska, W. A. de Jong, N. Govind, K. Kowalski,
       T. P. Straatsma, M. Valiev, H. J. J. van Dam, Y. Alexeev, J. Anchell,
       V. Anisimov, F. W. Aquino, R. Atta-Fynn, J. Autschbach, N. P. Bauman,
     J. C. Becca, D. E. Bernholdt, K. Bhaskaran-Nair, S. Bogatko, P. Borowski,
         J. Boschen, J. Brabec, A. Bruner, E. Cauet, Y. Chen, G. N. Chuev,
      C. J. Cramer, J. Daily, M. J. O. Deegan, T. H. Dunning Jr., M. Dupuis,
   K. G. Dyall, G. I. Fann, S. A. Fischer, A. Fonari, H. Fruchtl, L. Gagliardi,
      J. Garza, N. Gawande, S. Ghosh, K. Glaesemann, A. W. Gotz, J. Hammond,
       V. Helms, E. D. Hermes, K. Hirao, S. Hirata, M. Jacquelin, L. Jensen,
   B. G. Johnson, H. Jonsson, R. A. Kendall, M. Klemm, R. Kobayashi, V. Konkov,
      S. Krishnamoorthy, M. Krishnan, Z. Lin, R. D. Lins, R. J. Littlefield,
      A. J. Logsdail, K. Lopata, W. Ma, A. V. Marenich, J. Martin del Campo,
   D. Mejia-Rodriguez, J. E. Moore, J. M. Mullin, T. Nakajima, D. R. Nascimento,
    J. A. Nichols, P. J. Nichols, J. Nieplocha, A. Otero-de-la-Roza, B. Palmer,
    A. Panyala, T. Pirojsirikul, B. Peng, R. Peverati, J. Pittner, L. Pollack,
   R. M. Richard, P. Sadayappan, G. C. Schatz, W. A. Shelton, D. W. Silverstein,
   D. M. A. Smith, T. A. Soares, D. Song, M. Swart, H. L. Taylor, G. S. Thomas,
            V. Tipparaju, D. G. Truhlar, K. Tsemekhman, T. Van Voorhis,
      A. Vazquez-Mayagoitia, P. Verma, O. Villa, A. Vishnu, K. D. Vogiatzis,
        D. Wang, J. H. Weare, M. J. Williamson, T. L. Windus, K. Wolinski,
        A. T. Wong, Q. Wu, C. Yang, Q. Yu, M. Zacharias, Z. Zhang, Y. Zhao,
                                and R. J. Harrison
                        "NWChem: Past, present, and future
                         J. Chem. Phys. 152, 184102 (2020)
                               doi:10.1063/5.0004997

                                      AUTHORS
                                      -------
  E. Apra, E. J. Bylaska, N. Govind, K. Kowalski, M. Valiev, D. Mejia-Rodriguez,
       A. Kunitsa, N. P. Bauman, A. Panyala, W. A. de Jong, T. P. Straatsma,
   H. J. J. van Dam, D. Wang, T. L. Windus, J. Hammond, J. Autschbach, A. Woods,
    K. Bhaskaran-Nair, J. Brabec, K. Lopata, S. A. Fischer, S. Krishnamoorthy,
     M. Jacquelin, W. Ma, M. Klemm, O. Villa, Y. Chen, V. Anisimov, F. Aquino,
     S. Hirata, M. T. Hackler, E. Hermes, L. Jensen, J. E. Moore, J. C. Becca,
      V. Konjkov, T. Risthaus, M. Malagoli, A. Marenich, A. Otero-de-la-Roza,
        J. Mullin, P. Nichols, R. Peverati, J. Pittner, Y. Zhao, P.-D. Fan,
        A. Fonari, M. J. Williamson, R. J. Harrison, J. R. Rehr, M. Dupuis,
     D. Silverstein, D. M. A. Smith, J. Nieplocha, V. Tipparaju, M. Krishnan,
     B. E. Van Kuiken, A. Vazquez-Mayagoitia, M. Swart, Q. Wu, T. Van Voorhis,
     A. A. Auer, M. Nooijen, L. D. Crosby, E. Brown, G. Cisneros, G. I. Fann,
   H. Fruchtl, J. Garza, K. Hirao, R. A. Kendall, J. A. Nichols, K. Tsemekhman,
    K. Wolinski, J. Anchell, D. E. Bernholdt, P. Borowski, T. Clark, D. Clerc,
   H. Dachsel, M. J. O. Deegan, K. Dyall, D. Elwood, E. Glendening, M. Gutowski,
   A. C. Hess, J. Jaffe, B. G. Johnson, J. Ju, R. Kobayashi, R. Kutteh, Z. Lin,
   R. Littlefield, X. Long, B. Meng, T. Nakajima, S. Niu, L. Pollack, M. Rosing,
   K. Glaesemann, G. Sandrone, M. Stave, H. Taylor, G. Thomas, J. H. van Lenthe,
                               A. T. Wong, Z. Zhang.

 Total times  cpu:      287.6s     wall:      292.4s
