 argument  1 = 0e/mol.nwi
                                         
                                         


             Northwest Computational Chemistry Package (NWChem) 7.2.2
             --------------------------------------------------------


                    Environmental Molecular Sciences Laboratory
                       Pacific Northwest National Laboratory
                                Richland, WA 99352

                              Copyright (c) 1994-2022
                       Pacific Northwest National Laboratory
                            Battelle Memorial Institute

             NWChem is an open-source computational chemistry package
                        distributed under the terms of the
                      Educational Community License (ECL) 2.0
             A copy of the license is included with this distribution
                              in the LICENSE.TXT file

                                  ACKNOWLEDGMENT
                                  --------------

            This software and its documentation were developed at the
            EMSL at Pacific Northwest National Laboratory, a multiprogram
            national laboratory, operated for the U.S. Department of Energy
            by Battelle under Contract Number DE-AC05-76RL01830. Support
            for this work was provided by the Department of Energy Office
            of Biological and Environmental Research, Office of Basic
            Energy Sciences, and the Office of Advanced Scientific Computing.


           Job information
           ---------------

    hostname        = r363.ib.bridges2.psc.edu
    program         = nwchem
    date            = Tue Oct  1 15:44:55 2024

    compiled        = Mon_Mar_18_17:03:37_2024
    source          = /ocean/projects/pscstaff/mmadrid/nwchem-7.2.2
    nwchem branch   = 7.2.2
    nwchem revision = 74936fb9
    ga revision     = 5.8.0
    use scalapack   = F
    input           = 0e/mol.nwi
    prefix          = dft.
    data base       = .//dft.db
    status          = startup
    nproc           =       15
    time left       =     -1s



           Memory information
           ------------------

    heap     =   67108864 doubles =    512.0 Mbytes
    stack    =   67108861 doubles =    512.0 Mbytes
    global   =  134217728 doubles =   1024.0 Mbytes (distinct from heap & stack)
    total    =  268435453 doubles =   2048.0 Mbytes
    verify   = yes
    hardfail = no 


           Directory information
           ---------------------

  0 permanent = ./
  0 scratch   = /jet/home/hmt47/nwchem_scratch/




                                NWChem Input Module
                                -------------------


  library name resolved from: environment
  library file name is: </opt/packages/nwchem/nwchem7.2.2/share/nwchem/libraries/>
  


 Summary of "ao basis" -> "" (cartesian)
 ------------------------------------------------------------------------------
       Tag                 Description            Shells   Functions and Types
 ---------------- ------------------------------  ------  ---------------------
 *                        aug-cc-pVTZ                 on all atoms 


  pbe96 is a nonlocal functional; adding pw91lda local functional. 

 Scaling coordinates for geometry "geometry" by  1.889725989
 (inverse scale =  0.529177249)



                             Geometry "geometry" -> ""
                             -------------------------

 Output coordinates in angstroms (scale by  1.889725989 to convert to a.u.)

  No.       Tag          Charge          X              Y              Z
 ---- ---------------- ---------- -------------- -------------- --------------
    1 O                    8.0000     0.84297865    -0.08177103     0.09641654
    2 O                    8.0000     1.80806872     1.28670183    -2.58944976
    3 O                    8.0000     0.20092852     2.10147076     0.01435325
    4 O                    8.0000    -0.37069421     0.64124506    -2.73605095
    5 C                    6.0000     0.56338280     1.00065526    -0.51468751
    6 C                    6.0000     0.67737352     0.97422612    -2.09266257

      Atomic Mass 
      ----------- 

      O                 15.994910
      C                 12.000000


 Effective nuclear repulsion energy (a.u.)     206.0293812399

            Nuclear Dipole moment (a.u.) 
            ----------------------------
        X                 Y               Z
 ---------------- ---------------- ----------------
    51.5796765859    82.0716713012  -108.3983635888


            XYZ format geometry
            -------------------
     6
 geometry
 O                     0.84297865    -0.08177103     0.09641654
 O                     1.80806872     1.28670183    -2.58944976
 O                     0.20092852     2.10147076     0.01435325
 O                    -0.37069421     0.64124506    -2.73605095
 C                     0.56338280     1.00065526    -0.51468751
 C                     0.67737352     0.97422612    -2.09266257

 ==============================================================================
                                internuclear distances
 ------------------------------------------------------------------------------
       center one      |      center two      | atomic units |  angstroms
 ------------------------------------------------------------------------------
    5 C                |   1 O                |     2.40765  |     1.27408
    5 C                |   3 O                |     2.40749  |     1.27399
    6 C                |   2 O                |     2.40739  |     1.27393
    6 C                |   4 O                |     2.40766  |     1.27408
    6 C                |   5 C                |     2.99013  |     1.58231
 ------------------------------------------------------------------------------
                         number of included internuclear distances:          5
 ==============================================================================



 ==============================================================================
                                 internuclear angles
 ------------------------------------------------------------------------------
        center 1       |       center 2       |       center 3       |  degrees
 ------------------------------------------------------------------------------
    1 O                |   5 C                |   3 O                |   126.68
    1 O                |   5 C                |   6 C                |   116.64
    3 O                |   5 C                |   6 C                |   116.68
    2 O                |   6 C                |   4 O                |   126.68
    2 O                |   6 C                |   5 C                |   116.66
    4 O                |   6 C                |   5 C                |   116.66
 ------------------------------------------------------------------------------
                            number of included internuclear angles:          6
 ==============================================================================




                                 NWChem DFT Module
                                 -----------------


                      Basis "ao basis" -> "ao basis" (cartesian)
                      -----
  O (Oxygen)
  ----------
            Exponent  Coefficients 
       -------------- ---------------------------------------------------------
  1 S  1.53300000E+04  0.000508
  1 S  2.29900000E+03  0.003929
  1 S  5.22400000E+02  0.020243
  1 S  1.47300000E+02  0.079181
  1 S  4.75500000E+01  0.230687
  1 S  1.67600000E+01  0.433118
  1 S  6.20700000E+00  0.350260
  1 S  6.88200000E-01 -0.008154

  2 S  1.53300000E+04 -0.000115
  2 S  2.29900000E+03 -0.000895
  2 S  5.22400000E+02 -0.004636
  2 S  1.47300000E+02 -0.018724
  2 S  4.75500000E+01 -0.058463
  2 S  1.67600000E+01 -0.136463
  2 S  6.20700000E+00 -0.175740
  2 S  6.88200000E-01  0.603418

  3 S  1.75200000E+00  1.000000

  4 S  2.38400000E-01  1.000000

  5 S  7.37600000E-02  1.000000

  6 P  3.44600000E+01  0.015928
  6 P  7.74900000E+00  0.099740
  6 P  2.28000000E+00  0.310492

  7 P  7.15600000E-01  1.000000

  8 P  2.14000000E-01  1.000000

  9 P  5.97400000E-02  1.000000

 10 D  2.31400000E+00  1.000000

 11 D  6.45000000E-01  1.000000

 12 D  2.14000000E-01  1.000000

 13 F  1.42800000E+00  1.000000

 14 F  5.00000000E-01  1.000000

  C (Carbon)
  ----------
            Exponent  Coefficients 
       -------------- ---------------------------------------------------------
  1 S  8.23600000E+03  0.000531
  1 S  1.23500000E+03  0.004108
  1 S  2.80800000E+02  0.021087
  1 S  7.92700000E+01  0.081853
  1 S  2.55900000E+01  0.234817
  1 S  8.99700000E+00  0.434401
  1 S  3.31900000E+00  0.346129
  1 S  3.64300000E-01 -0.008983

  2 S  8.23600000E+03 -0.000113
  2 S  1.23500000E+03 -0.000878
  2 S  2.80800000E+02 -0.004540
  2 S  7.92700000E+01 -0.018133
  2 S  2.55900000E+01 -0.055760
  2 S  8.99700000E+00 -0.126895
  2 S  3.31900000E+00 -0.170352
  2 S  3.64300000E-01  0.598684

  3 S  9.05900000E-01  1.000000

  4 S  1.28500000E-01  1.000000

  5 S  4.40200000E-02  1.000000

  6 P  1.87100000E+01  0.014031
  6 P  4.13300000E+00  0.086866
  6 P  1.20000000E+00  0.290216

  7 P  3.82700000E-01  1.000000

  8 P  1.20900000E-01  1.000000

  9 P  3.56900000E-02  1.000000

 10 D  1.09700000E+00  1.000000

 11 D  3.18000000E-01  1.000000

 12 D  1.00000000E-01  1.000000

 13 F  7.61000000E-01  1.000000

 14 F  2.68000000E-01  1.000000



 Summary of "ao basis" -> "ao basis" (cartesian)
 ------------------------------------------------------------------------------
       Tag                 Description            Shells   Functions and Types
 ---------------- ------------------------------  ------  ---------------------
 O                        aug-cc-pVTZ               14       55   5s4p3d2f
 C                        aug-cc-pVTZ               14       55   5s4p3d2f




 Summary of "ao basis" -> "ao basis" (cartesian)
 ------------------------------------------------------------------------------
       Tag                 Description            Shells   Functions and Types
 ---------------- ------------------------------  ------  ---------------------
 O                        aug-cc-pVTZ               14       55   5s4p3d2f
 C                        aug-cc-pVTZ               14       55   5s4p3d2f


  Caching 1-el integrals 

            General Information
            -------------------
          SCF calculation type: DFT
          Wavefunction type:  closed shell.
          No. of atoms     :     6
          No. of electrons :    44
           Alpha electrons :    22
            Beta electrons :    22
          Charge           :     0
          Spin multiplicity:     1
          Use of symmetry is: off; symmetry adaption is: off
          Maximum number of iterations: 100
          AO basis - number of functions:   330
                     number of shells:    84
          Convergence on energy requested:  1.00D-06
          Convergence on density requested:  1.00D-05
          Convergence on gradient requested:  5.00D-04

              XC Information
              --------------
          PerdewBurkeErnzerhof Exchange Functional  1.000          
            Perdew 1991 LDA Correlation Functional  1.000 local    
           PerdewBurkeErnz. Correlation Functional  1.000 non-local

             Grid Information
             ----------------
          Grid used for XC integration:  medium    
          Radial quadrature: Mura-Knowles        
          Angular quadrature: Lebedev. 
          Tag              B.-S. Rad. Rad. Pts. Rad. Cut. Ang. Pts.
          ---              ---------- --------- --------- ---------
          O                   0.60       49          12.0       434
          C                   0.70       49          11.0       434
          Grid pruning is: on 
          Number of quadrature shells:   294
          Spatial weights used:  Erf1

          Convergence Information
          -----------------------
          Convergence aids based upon iterative change in 
          total energy or number of iterations. 
          Levelshifting, if invoked, occurs when the 
          HOMO/LUMO gap drops below (HL_TOL):  1.00D-02
          DIIS, if invoked, will attempt to extrapolate 
          using up to (NFOCK): 10 stored Fock matrices.

                    Damping(40%)  Levelshifting(0.0)       DIIS
                  --------------- ------------------- ---------------
          dE  on:    start            0.00D+00            start   
          dE off:  100 iters          0.00D+00          100 iters 


      Screening Tolerance Information
      -------------------------------
          Density screening/tol_rho:  1.00D-10
          AO Gaussian exp screening on grid/accAOfunc:  14
          CD Gaussian exp screening on grid/accCDfunc:  20
          XC Gaussian exp screening on grid/accXCfunc:  20
          Schwarz screening/accCoul:  1.00D-08


 Forcing the number of linearly dependent vectors to be  0

      Superposition of Atomic Density Guess
      -------------------------------------

 Sum of atomic energies:        -374.46637128
   Time after variat. SCF:      0.4
   Time prior to 1st pass:      0.4

 Grid_pts file          = /jet/home/hmt47/nwchem_scratch//dft.gridpts.00
 Record size in doubles =  12289        No. of grid_pts per rec  =   3070
 Max. records in memory =      5        Max. recs in file   =  67550051


           Memory utilization after 1st SCF pass: 
           Heap Space remaining (MW):       33.36            33363520
          Stack Space remaining (MW):       67.11            67107132

   convergence    iter        energy       DeltaE   RMS-Dens  Diis-err    time
 ---------------- ----- ----------------- --------- --------- ---------  ------
 d=40,ls=0.0,diis     1   -377.6192495561 -5.84D+02  7.72D-03  4.81D+01     0.9
 d=40,ls=0.0,diis     2   -377.0734548475  5.46D-01  7.15D-03  8.10D+00     4.9
 d=40,ls=0.0,diis     3   -376.4007355696  6.73D-01  4.01D-03  4.08D+00     8.9
 d=40,ls=0.0,diis     4   -376.5130159103 -1.12D-01  3.36D-03  1.82D+00    12.9
 d=40,ls=0.0,diis     5   -376.7048197240 -1.92D-01  1.41D-03  3.73D-01    16.9
  Resetting Diis
 d=40,ls=0.0,diis     6   -376.7445334276 -3.97D-02  1.34D-03  1.22D-01    20.9
 d=40,ls=0.0,diis     7   -376.7431541354  1.38D-03  2.94D-03  1.53D-01    24.9
 d=40,ls=0.0,diis     8   -376.5908201262  1.52D-01  2.27D-03  1.37D+00    28.9
 d=40,ls=0.0,diis     9   -376.6853743571 -9.46D-02  1.32D-03  5.39D-01    35.8
 d=40,ls=0.0,diis    10   -376.7408059278 -5.54D-02  6.98D-04  1.54D-01    39.8
 d=40,ls=0.0,diis    11   -376.7441785369 -3.37D-03  4.43D-04  1.53D-01    43.8
 d=40,ls=0.0,diis    12   -376.7587864585 -1.46D-02  3.37D-04  4.89D-02    47.8
 d=40,ls=0.0,diis    13   -376.7647961404 -6.01D-03  7.90D-05  8.42D-03    51.8
 d=40,ls=0.0,diis    14   -376.7658244566 -1.03D-03  7.70D-05  3.78D-03    55.8
 d=40,ls=0.0,diis    15   -376.7663745399 -5.50D-04  4.28D-05  9.35D-04    59.8
 d=40,ls=0.0,diis    16   -376.7665543638 -1.80D-04  1.88D-05  1.83D-04    63.8
 d=40,ls=0.0,diis    17   -376.7666092147 -5.49D-05  8.71D-06  3.50D-05    67.8
 d=40,ls=0.0,diis    18   -376.7666279371 -1.87D-05  3.65D-06  5.50D-06    72.1
 d=40,ls=0.0,diis    19   -376.7666346523 -6.72D-06  1.28D-06  7.22D-07    76.0
 d=40,ls=0.0,diis    20   -376.7666371849 -2.53D-06  5.61D-07  1.53D-07    80.0
 d=40,ls=0.0,diis    21   -376.7666381887 -1.00D-06  2.93D-07  3.02D-08    84.0
 d=40,ls=0.0,diis    22   -376.7666385855 -3.97D-07  1.22D-07  5.85D-09    88.0


         Total DFT energy =     -376.766638585503
      One electron energy =     -923.682242038787
           Coulomb energy =      385.364320790869
    Exchange-Corr. energy =      -44.478098577450
 Nuclear repulsion energy =      206.029381239865

 Numeric. integr. density =       43.999996981269

     Total iterative time =     87.7s



                       DFT Final Molecular Orbital Analysis
                       ------------------------------------

 Vector    1  Occ=2.000000D+00  E=-1.885979D+01
              MO Center=  3.3D-01,  1.9D+00, -1.7D-01, r^2= 1.0D+00
   Bfn.  Coefficient  Atom+Function         Bfn.  Coefficient  Atom+Function  
  ----- ------------  ---------------      ----- ------------  ---------------
   111      0.904304  3 O  s                  1      0.273904  1 O  s          
    56     -0.232474  2 O  s                166     -0.125488  4 O  s          
   113      0.060696  3 O  s                114     -0.034208  3 O  s          
   224     -0.033548  5 C  s                273     -0.028511  5 C  fyyz       
   279     -0.028549  6 C  s          

 Vector    2  Occ=2.000000D+00  E=-1.885978D+01
              MO Center=  1.5D+00,  1.3D+00, -2.4D+00, r^2= 1.2D+00
   Bfn.  Coefficient  Atom+Function         Bfn.  Coefficient  Atom+Function  
  ----- ------------  ---------------      ----- ------------  ---------------
    56      0.890584  2 O  s                166      0.304204  4 O  s          
   111      0.275438  3 O  s                 58      0.059698  2 O  s          
   279     -0.056497  6 C  s                224     -0.053478  5 C  s          
   289      0.030164  6 C  pz               323      0.027835  6 C  fxxz       
     4      0.025889  1 O  s          

 Vector    3  Occ=2.000000D+00  E=-1.885976D+01
              MO Center=  8.0D-01,  1.1D-01,  7.9D-03, r^2= 6.4D-01
   Bfn.  Coefficient  Atom+Function         Bfn.  Coefficient  Atom+Function  
  ----- ------------  ---------------      ----- ------------  ---------------
     1      0.929355  1 O  s                111     -0.259709  3 O  s          
    56      0.134102  2 O  s                166     -0.104495  4 O  s          
     3      0.062091  1 O  s                  4     -0.046664  1 O  s          
   114      0.040373  3 O  s                233      0.035883  5 C  py         
   274     -0.029861  5 C  fyzz             224     -0.027450  5 C  s          

 Vector    4  Occ=2.000000D+00  E=-1.885975D+01
              MO Center= -1.2D-01,  6.9D-01, -2.7D+00, r^2= 7.0D-01
   Bfn.  Coefficient  Atom+Function         Bfn.  Coefficient  Atom+Function  
  ----- ------------  ---------------      ----- ------------  ---------------
   166      0.917539  4 O  s                 56     -0.309713  2 O  s          
     1      0.148539  1 O  s                168      0.061261  4 O  s          
   169     -0.045995  4 O  s                 59      0.043751  2 O  s          
   287      0.036272  6 C  px               279     -0.029440  6 C  s          
   326     -0.029458  6 C  fxzz             224     -0.027965  5 C  s          

 Vector    5  Occ=2.000000D+00  E=-1.011591D+01
              MO Center=  6.1D-01,  9.9D-01, -1.2D+00, r^2= 6.4D-01
   Bfn.  Coefficient  Atom+Function         Bfn.  Coefficient  Atom+Function  
  ----- ------------  ---------------      ----- ------------  ---------------
   221      0.762193  5 C  s                276      0.666364  6 C  s          
   222      0.063874  5 C  s                277      0.055928  6 C  s          
   223      0.048897  5 C  s                278      0.042341  6 C  s          
     4     -0.038955  1 O  s                114     -0.039052  3 O  s          
    59     -0.034530  2 O  s                169     -0.034453  4 O  s          

 Vector    6  Occ=2.000000D+00  E=-1.011584D+01
              MO Center=  6.3D-01,  9.9D-01, -1.4D+00, r^2= 6.4D-01
   Bfn.  Coefficient  Atom+Function         Bfn.  Coefficient  Atom+Function  
  ----- ------------  ---------------      ----- ------------  ---------------
   276      0.761967  6 C  s                221     -0.666104  5 C  s          
   224      0.152354  5 C  s                279     -0.150043  6 C  s          
   277      0.063231  6 C  s                234     -0.059866  5 C  pz         
   289     -0.058008  6 C  pz               222     -0.055191  5 C  s          
   278      0.051914  6 C  s                223     -0.045791  5 C  s          

 Vector    7  Occ=2.000000D+00  E=-1.079583D+00
              MO Center=  6.2D-01,  9.9D-01, -1.3D+00, r^2= 2.4D+00
   Bfn.  Coefficient  Atom+Function         Bfn.  Coefficient  Atom+Function  
  ----- ------------  ---------------      ----- ------------  ---------------
   222      0.209105  5 C  s                277      0.209179  6 C  s          
     2      0.196628  1 O  s                 57      0.196851  2 O  s          
   112      0.196699  3 O  s                167      0.196639  4 O  s          
     4      0.096432  1 O  s                 59      0.096523  2 O  s          
   114      0.096420  3 O  s                169      0.096398  4 O  s          

 Vector    8  Occ=2.000000D+00  E=-1.050332D+00
              MO Center=  6.2D-01,  9.9D-01, -1.3D+00, r^2= 2.6D+00
   Bfn.  Coefficient  Atom+Function         Bfn.  Coefficient  Atom+Function  
  ----- ------------  ---------------      ----- ------------  ---------------
     2      0.214576  1 O  s                 57     -0.214807  2 O  s          
   112      0.214860  3 O  s                167     -0.214472  4 O  s          
   222      0.176327  5 C  s                277     -0.176248  6 C  s          
     4      0.120258  1 O  s                 59     -0.120481  2 O  s          
   114      0.120535  3 O  s                169     -0.120225  4 O  s          

 Vector    9  Occ=2.000000D+00  E=-9.862020D-01
              MO Center=  6.3D-01,  9.8D-01, -1.5D+00, r^2= 2.7D+00
   Bfn.  Coefficient  Atom+Function         Bfn.  Coefficient  Atom+Function  
  ----- ------------  ---------------      ----- ------------  ---------------
    57      0.258179  2 O  s                167     -0.258566  4 O  s          
     2      0.219981  1 O  s                112     -0.219768  3 O  s          
    59      0.212540  2 O  s                169     -0.212727  4 O  s          
     4      0.180987  1 O  s                114     -0.180908  3 O  s          
   281      0.119786  6 C  px               227     -0.098748  5 C  py         

 Vector   10  Occ=2.000000D+00  E=-9.861957D-01
              MO Center=  6.1D-01,  9.9D-01, -1.1D+00, r^2= 2.7D+00
   Bfn.  Coefficient  Atom+Function         Bfn.  Coefficient  Atom+Function  
  ----- ------------  ---------------      ----- ------------  ---------------
     2      0.258427  1 O  s                112     -0.258326  3 O  s          
    57     -0.219832  2 O  s                167      0.219923  4 O  s          
     4      0.212647  1 O  s                114     -0.212589  3 O  s          
    59     -0.180894  2 O  s                169      0.180968  4 O  s          
   227     -0.120034  5 C  py               281     -0.098564  6 C  px         

 Vector   11  Occ=2.000000D+00  E=-6.801406D-01
              MO Center=  6.2D-01,  9.9D-01, -1.3D+00, r^2= 1.7D+00
   Bfn.  Coefficient  Atom+Function         Bfn.  Coefficient  Atom+Function  
  ----- ------------  ---------------      ----- ------------  ---------------
   222      0.211804  5 C  s                277      0.211796  6 C  s          
   228     -0.167219  5 C  pz               283      0.167220  6 C  pz         
   231     -0.139796  5 C  pz               286      0.139797  6 C  pz         
     2     -0.133568  1 O  s                 57     -0.133529  2 O  s          
   112     -0.133497  3 O  s                167     -0.133514  4 O  s          

 Vector   12  Occ=2.000000D+00  E=-5.252874D-01
              MO Center=  6.2D-01,  9.9D-01, -1.3D+00, r^2= 3.9D+00
   Bfn.  Coefficient  Atom+Function         Bfn.  Coefficient  Atom+Function  
  ----- ------------  ---------------      ----- ------------  ---------------
   224      0.214887  5 C  s                279     -0.214891  6 C  s          
   222      0.199483  5 C  s                277     -0.199472  6 C  s          
     4     -0.163751  1 O  s                 59      0.163807  2 O  s          
   114     -0.163816  3 O  s                169      0.163746  4 O  s          
     2     -0.149691  1 O  s                 57      0.149747  2 O  s          

 Vector   13  Occ=2.000000D+00  E=-5.019501D-01
              MO Center=  6.2D-01,  9.9D-01, -1.3D+00, r^2= 3.5D+00
   Bfn.  Coefficient  Atom+Function         Bfn.  Coefficient  Atom+Function  
  ----- ------------  ---------------      ----- ------------  ---------------
   228      0.143459  5 C  pz               283     -0.143474  6 C  pz         
     7      0.141023  1 O  py               171      0.141126  4 O  px         
    61     -0.140410  2 O  px               117     -0.141031  3 O  py         
    10      0.133774  1 O  py               120     -0.133676  3 O  py         
   174      0.134047  4 O  px                64     -0.132910  2 O  px         

 Vector   14  Occ=2.000000D+00  E=-4.902571D-01
              MO Center=  5.7D-01,  1.0D+00, -5.9D-01, r^2= 2.9D+00
   Bfn.  Coefficient  Atom+Function         Bfn.  Coefficient  Atom+Function  
  ----- ------------  ---------------      ----- ------------  ---------------
   227      0.170496  5 C  py                 2      0.143641  1 O  s          
   112     -0.143397  3 O  s                  8      0.138604  1 O  pz         
    11      0.134349  1 O  pz               118     -0.130071  3 O  pz         
   282      0.129989  6 C  py               117     -0.128894  3 O  py         
   121     -0.126462  3 O  pz                 7     -0.124822  1 O  py         

 Vector   15  Occ=2.000000D+00  E=-4.902532D-01
              MO Center=  6.7D-01,  9.7D-01, -2.0D+00, r^2= 2.9D+00
   Bfn.  Coefficient  Atom+Function         Bfn.  Coefficient  Atom+Function  
  ----- ------------  ---------------      ----- ------------  ---------------
   281      0.170149  6 C  px                57     -0.143466  2 O  s          
   167      0.143577  4 O  s                173     -0.142950  4 O  pz         
   176     -0.138432  4 O  pz                61     -0.136286  2 O  px         
   226      0.129724  5 C  px                64     -0.127311  2 O  px         
    63      0.125730  2 O  pz                66      0.122384  2 O  pz         

 Vector   16  Occ=2.000000D+00  E=-4.491623D-01
              MO Center=  6.3D-01,  9.8D-01, -1.5D+00, r^2= 3.1D+00
   Bfn.  Coefficient  Atom+Function         Bfn.  Coefficient  Atom+Function  
  ----- ------------  ---------------      ----- ------------  ---------------
   172      0.162347  4 O  py                62      0.161174  2 O  py         
   175      0.159420  4 O  py                65      0.158271  2 O  py         
   282      0.145308  6 C  py               285      0.135678  6 C  py         
   226      0.125142  5 C  px               117      0.121003  3 O  py         
     7      0.119071  1 O  py               120      0.116639  3 O  py         

 Vector   17  Occ=2.000000D+00  E=-4.491522D-01
              MO Center=  6.1D-01,  9.9D-01, -1.1D+00, r^2= 3.1D+00
   Bfn.  Coefficient  Atom+Function         Bfn.  Coefficient  Atom+Function  
  ----- ------------  ---------------      ----- ------------  ---------------
   116      0.164000  3 O  px               119      0.161042  3 O  px         
     6      0.158733  1 O  px                 9      0.155879  1 O  px         
   226      0.145070  5 C  px               229      0.135431  5 C  px         
   282     -0.125522  6 C  py                61      0.123873  2 O  px         
    64      0.119457  2 O  px               171      0.115381  4 O  px         

 Vector   18  Occ=2.000000D+00  E=-3.877235D-01
              MO Center=  6.2D-01,  9.9D-01, -1.3D+00, r^2= 3.5D+00
   Bfn.  Coefficient  Atom+Function         Bfn.  Coefficient  Atom+Function  
  ----- ------------  ---------------      ----- ------------  ---------------
    66      0.181850  2 O  pz                63      0.180152  2 O  pz         
   121      0.180483  3 O  pz               118      0.178683  3 O  pz         
    11      0.176923  1 O  pz                 8      0.174894  1 O  pz         
   176      0.175550  4 O  pz               173      0.173419  4 O  pz         
    69      0.103106  2 O  pz               124      0.101998  3 O  pz         

 Vector   19  Occ=2.000000D+00  E=-3.411939D-01
              MO Center=  6.2D-01,  9.9D-01, -1.3D+00, r^2= 3.6D+00
   Bfn.  Coefficient  Atom+Function         Bfn.  Coefficient  Atom+Function  
  ----- ------------  ---------------      ----- ------------  ---------------
     9      0.190503  1 O  px                65     -0.190855  2 O  py         
   119     -0.190583  3 O  px               175      0.190895  4 O  py         
     6      0.188691  1 O  px                62     -0.189038  2 O  py         
   116     -0.188774  3 O  px               172      0.189084  4 O  py         
    12      0.116218  1 O  px                68     -0.116402  2 O  py         

 Vector   20  Occ=2.000000D+00  E=-3.316818D-01
              MO Center=  6.2D-01,  9.9D-01, -1.3D+00, r^2= 3.6D+00
   Bfn.  Coefficient  Atom+Function         Bfn.  Coefficient  Atom+Function  
  ----- ------------  ---------------      ----- ------------  ---------------
     9      0.195345  1 O  px                65      0.195804  2 O  py         
   119     -0.195233  3 O  px               175     -0.195826  4 O  py         
     6      0.193251  1 O  px                62      0.193699  2 O  py         
   116     -0.193140  3 O  px               172     -0.193730  4 O  py         
    12      0.120185  1 O  px                68      0.120451  2 O  py         

 Vector   21  Occ=2.000000D+00  E=-3.216495D-01
              MO Center=  5.6D-01,  1.0D+00, -4.3D-01, r^2= 2.8D+00
   Bfn.  Coefficient  Atom+Function         Bfn.  Coefficient  Atom+Function  
  ----- ------------  ---------------      ----- ------------  ---------------
   121     -0.198745  3 O  pz               118     -0.197322  3 O  pz         
    11      0.187917  1 O  pz                 8      0.186749  1 O  pz         
    10      0.185226  1 O  py                 7      0.182063  1 O  py         
   120      0.178881  3 O  py               117      0.175759  3 O  py         
   124     -0.143630  3 O  pz                14      0.138372  1 O  pz         

 Vector   22  Occ=2.000000D+00  E=-3.216372D-01
              MO Center=  6.8D-01,  9.7D-01, -2.2D+00, r^2= 2.8D+00
   Bfn.  Coefficient  Atom+Function         Bfn.  Coefficient  Atom+Function  
  ----- ------------  ---------------      ----- ------------  ---------------
    66      0.205843  2 O  pz                63      0.204343  2 O  pz         
   174      0.195721  4 O  px               171      0.192495  4 O  px         
   176     -0.180793  4 O  pz               173     -0.179703  4 O  pz         
    64      0.167614  2 O  px                61      0.164563  2 O  px         
    69      0.147467  2 O  pz               179     -0.134524  4 O  pz         

 Vector   23  Occ=0.000000D+00  E=-3.007686D-01
              MO Center=  6.2D-01,  9.9D-01, -1.3D+00, r^2= 3.4D+00
   Bfn.  Coefficient  Atom+Function         Bfn.  Coefficient  Atom+Function  
  ----- ------------  ---------------      ----- ------------  ---------------
    11      0.191888  1 O  pz                66     -0.192235  2 O  pz         
   121      0.192155  3 O  pz               176     -0.191791  4 O  pz         
     8      0.190421  1 O  pz                63     -0.190806  2 O  pz         
   118      0.190714  3 O  pz               173     -0.190310  4 O  pz         
    69     -0.123776  2 O  pz               124      0.122993  3 O  pz         

 Vector   24  Occ=0.000000D+00  E=-1.115401D-01
              MO Center=  6.0D-01,  9.9D-01, -1.0D+00, r^2= 2.5D+00
   Bfn.  Coefficient  Atom+Function         Bfn.  Coefficient  Atom+Function  
  ----- ------------  ---------------      ----- ------------  ---------------
   229      0.288522  5 C  px               226      0.261311  5 C  px         
   232      0.256960  5 C  px               285      0.204835  6 C  py         
   282      0.187983  6 C  py               119     -0.172977  3 O  px         
     9     -0.166682  1 O  px               116     -0.165202  3 O  px         
   122     -0.165547  3 O  px                12     -0.162476  1 O  px         

 Vector   25  Occ=0.000000D+00  E=-1.115030D-01
              MO Center=  6.4D-01,  9.8D-01, -1.6D+00, r^2= 2.5D+00
   Bfn.  Coefficient  Atom+Function         Bfn.  Coefficient  Atom+Function  
  ----- ------------  ---------------      ----- ------------  ---------------
   285      0.289183  6 C  py               282      0.261905  6 C  py         
   288      0.257697  6 C  py               229     -0.204437  5 C  px         
   226     -0.187602  5 C  px               175     -0.170967  4 O  py         
    65     -0.169442  2 O  py                68     -0.164078  2 O  py         
   178     -0.164688  4 O  py               172     -0.163274  4 O  py         

 Vector   26  Occ=0.000000D+00  E=-1.223880D-02
              MO Center=  6.2D-01,  9.9D-01, -1.3D+00, r^2= 1.1D+01
   Bfn.  Coefficient  Atom+Function         Bfn.  Coefficient  Atom+Function  
  ----- ------------  ---------------      ----- ------------  ---------------
   225      2.199953  5 C  s                280      2.200266  6 C  s          
     5     -1.595163  1 O  s                 60     -1.596622  2 O  s          
   115     -1.597406  3 O  s                170     -1.595678  4 O  s          
   224      1.043701  5 C  s                279      1.043519  6 C  s          
   234      0.562136  5 C  pz               289     -0.562188  6 C  pz         

 Vector   27  Occ=0.000000D+00  E= 6.217278D-03
              MO Center=  6.2D-01,  9.9D-01, -1.3D+00, r^2= 1.3D+01
   Bfn.  Coefficient  Atom+Function         Bfn.  Coefficient  Atom+Function  
  ----- ------------  ---------------      ----- ------------  ---------------
   225      3.790115  5 C  s                280     -3.789724  6 C  s          
   237     -1.632642  5 C  pz               292     -1.632873  6 C  pz         
   250     -0.538819  5 C  dxx              308      0.539519  6 C  dyy        
     5      0.488416  1 O  s                 60     -0.489268  2 O  s          
   115      0.489501  3 O  s                170     -0.489073  4 O  s          

 Vector   28  Occ=0.000000D+00  E= 2.616369D-02
              MO Center=  6.2D-01,  9.9D-01, -1.3D+00, r^2= 1.5D+01
   Bfn.  Coefficient  Atom+Function         Bfn.  Coefficient  Atom+Function  
  ----- ------------  ---------------      ----- ------------  ---------------
     5      1.281547  1 O  s                115     -1.279021  3 O  s          
   170      1.033298  4 O  s                 60     -1.025578  2 O  s          
   236      0.983178  5 C  py               291      0.891933  6 C  py         
   233      0.699627  5 C  py               287      0.547115  6 C  px         
   290      0.450717  6 C  px               235      0.319609  5 C  px         

 Vector   29  Occ=0.000000D+00  E= 2.616590D-02
              MO Center=  6.2D-01,  9.9D-01, -1.3D+00, r^2= 1.5D+01
   Bfn.  Coefficient  Atom+Function         Bfn.  Coefficient  Atom+Function  
  ----- ------------  ---------------      ----- ------------  ---------------
    60      1.284127  2 O  s                170     -1.276797  4 O  s          
     5      1.027944  1 O  s                115     -1.031243  3 O  s          
   290     -0.980450  6 C  px               235     -0.889182  5 C  px         
   287     -0.698190  6 C  px               233      0.548164  5 C  py         
   236      0.450993  5 C  py               291      0.319023  6 C  py         

 Vector   30  Occ=0.000000D+00  E= 5.361654D-02
              MO Center=  6.2D-01,  9.9D-01, -1.3D+00, r^2= 1.3D+01
   Bfn.  Coefficient  Atom+Function         Bfn.  Coefficient  Atom+Function  
  ----- ------------  ---------------      ----- ------------  ---------------
   225     15.219546  5 C  s                280    -15.218767  6 C  s          
   224     -4.493819  5 C  s                279      4.494662  6 C  s          
   237     -3.693905  5 C  pz               292     -3.688962  6 C  pz         
   255     -2.373850  5 C  dzz              310      2.373140  6 C  dzz        
   234      2.112946  5 C  pz               289      2.113292  6 C  pz         

 Vector   31  Occ=0.000000D+00  E= 5.563558D-02
              MO Center=  6.2D-01,  9.9D-01, -1.3D+00, r^2= 1.9D+01
   Bfn.  Coefficient  Atom+Function         Bfn.  Coefficient  Atom+Function  
  ----- ------------  ---------------      ----- ------------  ---------------
   237      3.712465  5 C  pz               292     -3.717661  6 C  pz         
    72      0.951798  2 O  pz               127     -0.946665  3 O  pz         
    17     -0.933895  1 O  pz               182      0.929535  4 O  pz         
   224     -0.720834  5 C  s                279     -0.713720  6 C  s          
   280     -0.702580  6 C  s                225     -0.681095  5 C  s          

 Vector   32  Occ=0.000000D+00  E= 6.146759D-02
              MO Center=  6.2D-01,  9.9D-01, -1.3D+00, r^2= 1.8D+01
   Bfn.  Coefficient  Atom+Function         Bfn.  Coefficient  Atom+Function  
  ----- ------------  ---------------      ----- ------------  ---------------
   236     -2.311185  5 C  py               290     -2.249753  6 C  px         
   235      2.195096  5 C  px               291      2.064834  6 C  py         
     5     -1.312971  1 O  s                115      1.318412  3 O  s          
    60      0.736245  2 O  s                170     -0.727378  4 O  s          
   233     -0.349547  5 C  py                71     -0.293051  2 O  py         

 Vector   33  Occ=0.000000D+00  E= 6.146779D-02
              MO Center=  6.2D-01,  9.9D-01, -1.3D+00, r^2= 1.8D+01
   Bfn.  Coefficient  Atom+Function         Bfn.  Coefficient  Atom+Function  
  ----- ------------  ---------------      ----- ------------  ---------------
   290      2.308429  6 C  px               236     -2.258109  5 C  py         
   291      2.202896  6 C  py               235     -2.062066  5 C  px         
    60     -1.312474  2 O  s                170      1.317851  4 O  s          
     5     -0.732785  1 O  s                115      0.729097  3 O  s          
   287      0.348661  6 C  px               125      0.296062  3 O  px         

 Vector   34  Occ=0.000000D+00  E= 8.416100D-02
              MO Center=  6.2D-01,  9.9D-01, -1.3D+00, r^2= 1.6D+01
   Bfn.  Coefficient  Atom+Function         Bfn.  Coefficient  Atom+Function  
  ----- ------------  ---------------      ----- ------------  ---------------
   224     17.523963  5 C  s                279    -17.524619  6 C  s          
   225      7.015898  5 C  s                280     -7.016274  6 C  s          
   234     -5.519627  5 C  pz               289     -5.519394  6 C  pz         
     5     -5.430040  1 O  s                 60      5.427269  2 O  s          
   115     -5.425605  3 O  s                170      5.428885  4 O  s          

 Vector   35  Occ=0.000000D+00  E= 9.466685D-02
              MO Center=  6.2D-01,  9.9D-01, -1.3D+00, r^2= 1.3D+01
   Bfn.  Coefficient  Atom+Function         Bfn.  Coefficient  Atom+Function  
  ----- ------------  ---------------      ----- ------------  ---------------
    15      0.937035  1 O  px                71     -0.937516  2 O  py         
   125     -0.937409  3 O  px               181      0.939226  4 O  py         
   251      0.637657  5 C  dxy              306      0.638824  6 C  dxy        
    70      0.280227  2 O  px                16      0.277669  1 O  py         
   126     -0.275035  3 O  py               180     -0.274300  4 O  px         

 Vector   36  Occ=0.000000D+00  E= 1.056804D-01
              MO Center=  6.2D-01,  9.9D-01, -1.3D+00, r^2= 1.6D+01
   Bfn.  Coefficient  Atom+Function         Bfn.  Coefficient  Atom+Function  
  ----- ------------  ---------------      ----- ------------  ---------------
     5      5.600361  1 O  s                 60      5.606101  2 O  s          
   115      5.607773  3 O  s                170      5.603054  4 O  s          
   224     -4.773229  5 C  s                279     -4.774231  6 C  s          
   253     -2.378788  5 C  dyy              305     -2.379280  6 C  dxx        
   255     -2.196253  5 C  dzz              310     -2.199526  6 C  dzz        

 Vector   37  Occ=0.000000D+00  E= 1.320360D-01
              MO Center=  6.2D-01,  9.9D-01, -1.3D+00, r^2= 1.4D+01
   Bfn.  Coefficient  Atom+Function         Bfn.  Coefficient  Atom+Function  
  ----- ------------  ---------------      ----- ------------  ---------------
   225     32.111003  5 C  s                280    -32.110953  6 C  s          
   237     -5.591106  5 C  pz               292     -5.590691  6 C  pz         
     5     -3.931178  1 O  s                 60      3.930077  2 O  s          
   115     -3.932595  3 O  s                170      3.932741  4 O  s          
   234      2.073102  5 C  pz               289      2.073115  6 C  pz         

 Vector   38  Occ=0.000000D+00  E= 1.392667D-01
              MO Center=  6.2D-01,  9.9D-01, -1.3D+00, r^2= 1.5D+01
   Bfn.  Coefficient  Atom+Function         Bfn.  Coefficient  Atom+Function  
  ----- ------------  ---------------      ----- ------------  ---------------
   236      2.346920  5 C  py               291     -2.259757  6 C  py         
   254      2.091775  5 C  dyz              307      1.772711  6 C  dxz        
   233     -1.607129  5 C  py               182      1.577673  4 O  pz         
    17      1.537411  1 O  pz                72     -1.530921  2 O  pz         
   127     -1.533192  3 O  pz               290     -1.351496  6 C  px         

 Vector   39  Occ=0.000000D+00  E= 1.392721D-01
              MO Center=  6.2D-01,  9.9D-01, -1.3D+00, r^2= 1.5D+01
   Bfn.  Coefficient  Atom+Function         Bfn.  Coefficient  Atom+Function  
  ----- ------------  ---------------      ----- ------------  ---------------
   290     -2.341103  6 C  px               235      2.254695  5 C  px         
   307      2.074151  6 C  dxz              254     -1.780011  5 C  dyz        
   287      1.603515  6 C  px                17     -1.589914  1 O  pz         
   182      1.580706  4 O  pz               127      1.519499  3 O  pz         
    72     -1.490696  2 O  pz               236     -1.352658  5 C  py         

 Vector   40  Occ=0.000000D+00  E= 1.463087D-01
              MO Center=  6.2D-01,  9.9D-01, -1.3D+00, r^2= 1.5D+01
   Bfn.  Coefficient  Atom+Function         Bfn.  Coefficient  Atom+Function  
  ----- ------------  ---------------      ----- ------------  ---------------
    15      1.483380  1 O  px                71      1.488575  2 O  py         
   125     -1.486796  3 O  px               181     -1.487279  4 O  py         
   251      1.377328  5 C  dxy              306     -1.378924  6 C  dxy        
   253      0.449738  5 C  dyy              308     -0.448673  6 C  dyy        
   250     -0.442701  5 C  dxx               16      0.439368  1 O  py         

 Vector   41  Occ=0.000000D+00  E= 1.604749D-01
              MO Center=  6.2D-01,  9.9D-01, -1.3D+00, r^2= 1.5D+01
   Bfn.  Coefficient  Atom+Function         Bfn.  Coefficient  Atom+Function  
  ----- ------------  ---------------      ----- ------------  ---------------
     5      3.057016  1 O  s                115     -3.050649  3 O  s          
   233      2.502163  5 C  py               235      2.498959  5 C  px         
    60     -2.480387  2 O  s                170      2.462092  4 O  s          
   290     -2.240511  6 C  px               291      1.949858  6 C  py         
   180      1.880246  4 O  px               288      1.884840  6 C  py         

 Vector   42  Occ=0.000000D+00  E= 1.604826D-01
              MO Center=  6.2D-01,  9.9D-01, -1.3D+00, r^2= 1.5D+01
   Bfn.  Coefficient  Atom+Function         Bfn.  Coefficient  Atom+Function  
  ----- ------------  ---------------      ----- ------------  ---------------
   170     -3.063910  4 O  s                 60      3.041134  2 O  s          
   291      2.508152  6 C  py               287     -2.495465  6 C  px         
     5      2.479959  1 O  s                115     -2.458615  3 O  s          
   236     -2.247662  5 C  py               235     -1.949175  5 C  px         
    16      1.880337  1 O  py               126      1.871205  3 O  py         

 Vector   43  Occ=0.000000D+00  E= 1.668557D-01
              MO Center=  6.2D-01,  9.9D-01, -1.3D+00, r^2= 1.4D+01
   Bfn.  Coefficient  Atom+Function         Bfn.  Coefficient  Atom+Function  
  ----- ------------  ---------------      ----- ------------  ---------------
   225      4.669347  5 C  s                280      4.660811  6 C  s          
   237      1.847422  5 C  pz               292     -1.848886  6 C  pz         
     5     -1.836115  1 O  s                 60     -1.822070  2 O  s          
   115     -1.822901  3 O  s                170     -1.829110  4 O  s          
   224      1.606064  5 C  s                279      1.602847  6 C  s          

 Vector   44  Occ=0.000000D+00  E= 1.739081D-01
              MO Center=  6.2D-01,  9.9D-01, -1.3D+00, r^2= 1.7D+01
   Bfn.  Coefficient  Atom+Function         Bfn.  Coefficient  Atom+Function  
  ----- ------------  ---------------      ----- ------------  ---------------
   225      6.103768  5 C  s                280     -6.104065  6 C  s          
   224      3.872190  5 C  s                279     -3.874239  6 C  s          
   237     -3.786551  5 C  pz               292     -3.788626  6 C  pz         
   115      1.758086  3 O  s                  5      1.748410  1 O  s          
    60     -1.754411  2 O  s                170     -1.749934  4 O  s          

 Vector   45  Occ=0.000000D+00  E= 1.847330D-01
              MO Center=  6.1D-01,  9.8D-01, -1.2D+00, r^2= 1.7D+01
   Bfn.  Coefficient  Atom+Function         Bfn.  Coefficient  Atom+Function  
  ----- ------------  ---------------      ----- ------------  ---------------
   236      3.557378  5 C  py               290      2.809627  6 C  px         
    16     -2.596087  1 O  py               126     -2.576868  3 O  py         
   180     -1.838836  4 O  px                70     -1.783780  2 O  px         
   291      1.656209  6 C  py                71     -1.611822  2 O  py         
   181     -1.598203  4 O  py               114      1.271624  3 O  s          

 Vector   46  Occ=0.000000D+00  E= 1.847504D-01
              MO Center=  6.3D-01,  9.9D-01, -1.4D+00, r^2= 1.7D+01
   Bfn.  Coefficient  Atom+Function         Bfn.  Coefficient  Atom+Function  
  ----- ------------  ---------------      ----- ------------  ---------------
   290      3.551197  6 C  px               236     -2.816769  5 C  py         
   180     -2.611850  4 O  px                70     -2.548824  2 O  px         
    16      1.822344  1 O  py               126      1.805589  3 O  py         
   235      1.646967  5 C  px                15     -1.624876  1 O  px         
   125     -1.571165  3 O  px                59      1.268560  2 O  s          

 Vector   47  Occ=0.000000D+00  E= 1.858522D-01
              MO Center=  6.2D-01,  9.9D-01, -1.3D+00, r^2= 1.8D+01
   Bfn.  Coefficient  Atom+Function         Bfn.  Coefficient  Atom+Function  
  ----- ------------  ---------------      ----- ------------  ---------------
   237      6.956718  5 C  pz               292     -6.955001  6 C  pz         
   224     -4.623619  5 C  s                279     -4.617410  6 C  s          
   225     -3.966316  5 C  s                280     -3.959164  6 C  s          
     5      3.794728  1 O  s                 60      3.787167  2 O  s          
   115      3.788844  3 O  s                170      3.788943  4 O  s          

 Vector   48  Occ=0.000000D+00  E= 2.023409D-01
              MO Center=  6.2D-01,  9.9D-01, -1.3D+00, r^2= 1.5D+01
   Bfn.  Coefficient  Atom+Function         Bfn.  Coefficient  Atom+Function  
  ----- ------------  ---------------      ----- ------------  ---------------
   225     19.317703  5 C  s                280    -19.321825  6 C  s          
   115    -11.623022  3 O  s                  5    -11.559854  1 O  s          
    60     11.605096  2 O  s                170     11.583960  4 O  s          
   224     10.101929  5 C  s                279    -10.105678  6 C  s          
   253      5.830947  5 C  dyy              305     -5.816318  6 C  dxx        

 Vector   49  Occ=0.000000D+00  E= 2.174736D-01
              MO Center=  6.2D-01,  9.8D-01, -1.3D+00, r^2= 1.5D+01
   Bfn.  Coefficient  Atom+Function         Bfn.  Coefficient  Atom+Function  
  ----- ------------  ---------------      ----- ------------  ---------------
   170     -5.591409  4 O  s                  5      5.499072  1 O  s          
    60      5.499273  2 O  s                115     -5.404761  3 O  s          
   291     -3.340714  6 C  py               236      2.585974  5 C  py         
   254      2.568375  5 C  dyz              287     -2.562334  6 C  px         
   307      2.402744  6 C  dxz              235      2.348326  5 C  px         

 Vector   50  Occ=0.000000D+00  E= 2.174812D-01
              MO Center=  6.2D-01,  9.9D-01, -1.3D+00, r^2= 1.5D+01
   Bfn.  Coefficient  Atom+Function         Bfn.  Coefficient  Atom+Function  
  ----- ------------  ---------------      ----- ------------  ---------------
     5      5.565269  1 O  s                115     -5.525697  3 O  s          
    60     -5.479330  2 O  s                170      5.425825  4 O  s          
   235     -3.333764  5 C  px               233      2.566983  5 C  py         
   290      2.579031  6 C  px               307     -2.549574  6 C  dxz        
   254      2.415699  5 C  dyz              291     -2.351847  6 C  py         

 Vector   51  Occ=0.000000D+00  E= 2.451936D-01
              MO Center=  6.2D-01,  9.9D-01, -1.3D+00, r^2= 7.5D+00
   Bfn.  Coefficient  Atom+Function         Bfn.  Coefficient  Atom+Function  
  ----- ------------  ---------------      ----- ------------  ---------------
   225     17.793295  5 C  s                280    -17.798279  6 C  s          
   253     -3.294335  5 C  dyy              305      3.285046  6 C  dxx        
   250     -2.947146  5 C  dxx              308      2.956857  6 C  dyy        
   237     -1.861784  5 C  pz               292     -1.863429  6 C  pz         
   234     -1.833554  5 C  pz               289     -1.832427  6 C  pz         

 Vector   52  Occ=0.000000D+00  E= 2.660004D-01
              MO Center=  6.2D-01,  9.9D-01, -1.3D+00, r^2= 9.5D+00
   Bfn.  Coefficient  Atom+Function         Bfn.  Coefficient  Atom+Function  
  ----- ------------  ---------------      ----- ------------  ---------------
   254      5.258771  5 C  dyz               60      4.924040  2 O  s          
   170     -4.879250  4 O  s                309      4.828028  6 C  dyz        
     5      4.659407  1 O  s                115     -4.678731  3 O  s          
   307      3.310018  6 C  dxz              252      2.470515  5 C  dxz        
    70     -2.148026  2 O  px               180     -2.112962  4 O  px         

 Vector   53  Occ=0.000000D+00  E= 2.660453D-01
              MO Center=  6.2D-01,  9.8D-01, -1.3D+00, r^2= 9.5D+00
   Bfn.  Coefficient  Atom+Function         Bfn.  Coefficient  Atom+Function  
  ----- ------------  ---------------      ----- ------------  ---------------
   307     -5.210772  6 C  dxz                5      4.922854  1 O  s          
   115     -4.881746  3 O  s                252     -4.784353  5 C  dxz        
   170      4.704799  4 O  s                 60     -4.637294  2 O  s          
   254      3.313111  5 C  dyz              309      2.474165  6 C  dyz        
    16      2.132011  1 O  py               126      2.140382  3 O  py         

 Vector   54  Occ=0.000000D+00  E= 2.751236D-01
              MO Center=  6.2D-01,  9.9D-01, -1.3D+00, r^2= 5.6D+00
   Bfn.  Coefficient  Atom+Function         Bfn.  Coefficient  Atom+Function  
  ----- ------------  ---------------      ----- ------------  ---------------
   225      3.473768  5 C  s                280      3.432505  6 C  s          
   279      2.079971  6 C  s                224      2.060718  5 C  s          
   255     -1.567623  5 C  dzz              310     -1.558461  6 C  dzz        
   253     -1.320530  5 C  dyy              305     -1.315772  6 C  dxx        
   115     -1.235440  3 O  s                237     -1.239233  5 C  pz         

 Vector   55  Occ=0.000000D+00  E= 2.806408D-01
              MO Center=  6.2D-01,  9.9D-01, -1.3D+00, r^2= 7.3D+00
   Bfn.  Coefficient  Atom+Function         Bfn.  Coefficient  Atom+Function  
  ----- ------------  ---------------      ----- ------------  ---------------
   251      2.200407  5 C  dxy              306      2.210474  6 C  dxy        
    68     -0.906869  2 O  py                12      0.900140  1 O  px         
   122     -0.902576  3 O  px               178      0.902433  4 O  py         
    71     -0.876220  2 O  py               125     -0.878114  3 O  px         
    15      0.869516  1 O  px               181      0.869055  4 O  py         

 Vector   56  Occ=0.000000D+00  E= 2.875358D-01
              MO Center=  6.2D-01,  9.8D-01, -1.3D+00, r^2= 1.4D+01
   Bfn.  Coefficient  Atom+Function         Bfn.  Coefficient  Atom+Function  
  ----- ------------  ---------------      ----- ------------  ---------------
   224     41.165020  5 C  s                279    -41.167952  6 C  s          
   234    -17.703907  5 C  pz               289    -17.702499  6 C  pz         
   255     14.336371  5 C  dzz              310    -14.338702  6 C  dzz        
   225    -11.766395  5 C  s                280     11.767439  6 C  s          
     5     -8.636223  1 O  s                 60      8.628151  2 O  s          

 Vector   57  Occ=0.000000D+00  E= 2.943213D-01
              MO Center=  6.2D-01,  9.9D-01, -1.3D+00, r^2= 1.5D+01
   Bfn.  Coefficient  Atom+Function         Bfn.  Coefficient  Atom+Function  
  ----- ------------  ---------------      ----- ------------  ---------------
     5     13.213154  1 O  s                 60     13.242079  2 O  s          
   115     13.253026  3 O  s                170     13.224228  4 O  s          
   224    -10.112804  5 C  s                279    -10.106219  6 C  s          
   253     -6.508264  5 C  dyy              305     -6.494168  6 C  dxx        
   234     -4.383906  5 C  pz               289      4.387895  6 C  pz         

 Vector   58  Occ=0.000000D+00  E= 3.310428D-01
              MO Center=  6.3D-01,  9.9D-01, -1.3D+00, r^2= 8.0D+00
   Bfn.  Coefficient  Atom+Function         Bfn.  Coefficient  Atom+Function  
  ----- ------------  ---------------      ----- ------------  ---------------
   254      4.271883  5 C  dyz              307      3.805177  6 C  dxz        
   309      2.412517  6 C  dyz               60     -1.004845  2 O  s          
   290      0.994465  6 C  px               170      0.964102  4 O  s          
    59      0.955430  2 O  s                169     -0.942796  4 O  s          
     5     -0.934529  1 O  s                 15     -0.907417  1 O  px         

 Vector   59  Occ=0.000000D+00  E= 3.310677D-01
              MO Center=  6.2D-01,  9.8D-01, -1.3D+00, r^2= 8.0D+00
   Bfn.  Coefficient  Atom+Function         Bfn.  Coefficient  Atom+Function  
  ----- ------------  ---------------      ----- ------------  ---------------
   307      4.244560  6 C  dxz              254     -3.833213  5 C  dyz        
   252      2.379288  5 C  dxz                5      1.002763  1 O  s          
   236      0.994538  5 C  py                 4     -0.956748  1 O  s          
   115     -0.961380  3 O  s                170      0.954180  4 O  s          
   114      0.945096  3 O  s                169     -0.893083  4 O  s          

 Vector   60  Occ=0.000000D+00  E= 3.317781D-01
              MO Center=  6.2D-01,  9.9D-01, -1.3D+00, r^2= 1.2D+01
   Bfn.  Coefficient  Atom+Function         Bfn.  Coefficient  Atom+Function  
  ----- ------------  ---------------      ----- ------------  ---------------
   255      7.199008  5 C  dzz              310      7.192542  6 C  dzz        
     5     -3.872757  1 O  s                 60     -3.875653  2 O  s          
   115     -3.888009  3 O  s                170     -3.871993  4 O  s          
   234     -2.239277  5 C  pz               289      2.237375  6 C  pz         
   224     -2.208712  5 C  s                279     -2.218206  6 C  s          

 Vector   61  Occ=0.000000D+00  E= 3.483336D-01
              MO Center=  6.0D-01,  9.9D-01, -1.0D+00, r^2= 7.0D+00
   Bfn.  Coefficient  Atom+Function         Bfn.  Coefficient  Atom+Function  
  ----- ------------  ---------------      ----- ------------  ---------------
   233      4.047647  5 C  py               309     -3.320327  6 C  dyz        
   288     -2.143204  6 C  py               236      1.879370  5 C  py         
   252     -1.720112  5 C  dxz              307      1.660072  6 C  dxz        
   254      1.552014  5 C  dyz               17      1.351825  1 O  pz         
   127     -1.288222  3 O  pz                 4      1.118949  1 O  s          

 Vector   62  Occ=0.000000D+00  E= 3.483478D-01
              MO Center=  6.4D-01,  9.8D-01, -1.6D+00, r^2= 7.0D+00
   Bfn.  Coefficient  Atom+Function         Bfn.  Coefficient  Atom+Function  
  ----- ------------  ---------------      ----- ------------  ---------------
   287      4.041114  6 C  px               252      3.304645  5 C  dxz        
   232     -2.135597  5 C  px               290      1.876468  6 C  px         
   309     -1.743395  6 C  dyz              254      1.674058  5 C  dyz        
   307     -1.539977  6 C  dxz              182     -1.351686  4 O  pz         
    72      1.285428  2 O  pz               169      1.120557  4 O  s          

 Vector   63  Occ=0.000000D+00  E= 3.537146D-01
              MO Center=  6.2D-01,  9.9D-01, -1.3D+00, r^2= 1.1D+01
   Bfn.  Coefficient  Atom+Function         Bfn.  Coefficient  Atom+Function  
  ----- ------------  ---------------      ----- ------------  ---------------
   225     35.512041  5 C  s                280    -35.512281  6 C  s          
   224     27.699230  5 C  s                279    -27.697267  6 C  s          
     5    -12.767412  1 O  s                 60     12.755904  2 O  s          
   115    -12.749915  3 O  s                170     12.764192  4 O  s          
   234     -6.671305  5 C  pz               289     -6.673842  6 C  pz         

 Vector   64  Occ=0.000000D+00  E= 3.797831D-01
              MO Center=  6.2D-01,  9.9D-01, -1.3D+00, r^2= 1.0D+01
   Bfn.  Coefficient  Atom+Function         Bfn.  Coefficient  Atom+Function  
  ----- ------------  ---------------      ----- ------------  ---------------
   224     16.398193  5 C  s                279     16.399632  6 C  s          
     5     -7.531882  1 O  s                 60     -7.532544  2 O  s          
   115     -7.526536  3 O  s                170     -7.530073  4 O  s          
   253      7.457053  5 C  dyy              305      7.417750  6 C  dxx        
   225      6.076929  5 C  s                280      6.084054  6 C  s          

 Vector   65  Occ=0.000000D+00  E= 4.149927D-01
              MO Center=  6.2D-01,  9.9D-01, -1.3D+00, r^2= 1.0D+01
   Bfn.  Coefficient  Atom+Function         Bfn.  Coefficient  Atom+Function  
  ----- ------------  ---------------      ----- ------------  ---------------
   251      5.935966  5 C  dxy              306     -5.938375  6 C  dxy        
   253      1.931842  5 C  dyy              308     -1.929408  6 C  dyy        
   250     -1.909065  5 C  dxx              305      1.907621  6 C  dxx        
   178     -1.570713  4 O  py                12      1.561690  1 O  px         
    68      1.567019  2 O  py               122     -1.568225  3 O  px         

 Vector   66  Occ=0.000000D+00  E= 4.234211D-01
              MO Center=  6.2D-01,  9.9D-01, -1.3D+00, r^2= 8.4D+00
   Bfn.  Coefficient  Atom+Function         Bfn.  Coefficient  Atom+Function  
  ----- ------------  ---------------      ----- ------------  ---------------
   287     12.008269  6 C  px               233     10.741286  5 C  py         
   232     -5.720018  5 C  px               115     -4.036401  3 O  s          
     5      4.010769  1 O  s                 60     -3.992320  2 O  s          
   170      3.979008  4 O  s                252      2.389731  5 C  dxz        
     4      2.345995  1 O  s                114     -2.356037  3 O  s          

 Vector   67  Occ=0.000000D+00  E= 4.234398D-01
              MO Center=  6.2D-01,  9.8D-01, -1.3D+00, r^2= 8.4D+00
   Bfn.  Coefficient  Atom+Function         Bfn.  Coefficient  Atom+Function  
  ----- ------------  ---------------      ----- ------------  ---------------
   233     12.038518  5 C  py               287    -10.723027  6 C  px         
   288     -5.746784  6 C  py                60      4.021710  2 O  s          
   170     -4.022077  4 O  s                115     -3.996677  3 O  s          
     5      3.970819  1 O  s                309     -2.407142  6 C  dyz        
    59      2.349389  2 O  s                169     -2.356655  4 O  s          

 Vector   68  Occ=0.000000D+00  E= 4.609663D-01
              MO Center=  6.2D-01,  1.0D+00, -1.3D+00, r^2= 1.0D+01
   Bfn.  Coefficient  Atom+Function         Bfn.  Coefficient  Atom+Function  
  ----- ------------  ---------------      ----- ------------  ---------------
     5     12.983777  1 O  s                 60    -12.920858  2 O  s          
   115     12.895625  3 O  s                170    -12.958570  4 O  s          
   225    -12.234785  5 C  s                280     12.234636  6 C  s          
   253    -10.510849  5 C  dyy              305     10.466699  6 C  dxx        
   234    -10.216366  5 C  pz               289    -10.216101  6 C  pz         

 Vector   69  Occ=0.000000D+00  E= 4.718757D-01
              MO Center=  5.7D-01,  1.0D+00, -6.2D-01, r^2= 1.1D+01
   Bfn.  Coefficient  Atom+Function         Bfn.  Coefficient  Atom+Function  
  ----- ------------  ---------------      ----- ------------  ---------------
   254     15.870984  5 C  dyz              288     10.712343  6 C  py         
   307     -9.935162  6 C  dxz              115     -8.588162  3 O  s          
     5      8.499240  1 O  s                252     -7.746542  5 C  dxz        
   232      4.833265  5 C  px               170      4.271041  4 O  s          
    60     -4.185669  2 O  s                309      3.376932  6 C  dyz        

 Vector   70  Occ=0.000000D+00  E= 4.718868D-01
              MO Center=  6.7D-01,  9.7D-01, -2.0D+00, r^2= 1.1D+01
   Bfn.  Coefficient  Atom+Function         Bfn.  Coefficient  Atom+Function  
  ----- ------------  ---------------      ----- ------------  ---------------
   307     15.778202  6 C  dxz              232    -10.694066  5 C  px         
   254     10.008444  5 C  dyz               60      8.598118  2 O  s          
   170     -8.491635  4 O  s                309      7.855510  6 C  dyz        
   288      4.844610  6 C  py               115     -4.282477  3 O  s          
     5      4.173713  1 O  s                252      3.389173  5 C  dxz        

 Vector   71  Occ=0.000000D+00  E= 5.079229D-01
              MO Center=  6.2D-01,  9.8D-01, -1.3D+00, r^2= 9.0D+00
   Bfn.  Coefficient  Atom+Function         Bfn.  Coefficient  Atom+Function  
  ----- ------------  ---------------      ----- ------------  ---------------
   306      1.665555  6 C  dxy              251      1.544746  5 C  dxy        
   199      1.075288  4 O  dyz               32     -1.067781  1 O  dxz        
    89     -0.978434  2 O  dyz              142      0.966977  3 O  dxz        
    86      0.873255  2 O  dxy               71     -0.835135  2 O  py         
    15      0.826109  1 O  px               125     -0.828975  3 O  px         

 Vector   72  Occ=0.000000D+00  E= 5.107344D-01
              MO Center=  6.2D-01,  9.9D-01, -1.3D+00, r^2= 8.0D+00
   Bfn.  Coefficient  Atom+Function         Bfn.  Coefficient  Atom+Function  
  ----- ------------  ---------------      ----- ------------  ---------------
   224     21.103055  5 C  s                279     21.105758  6 C  s          
   234     13.135509  5 C  pz               289    -13.136780  6 C  pz         
   253      6.934796  5 C  dyy              305      6.901845  6 C  dxx        
   251     -6.025892  5 C  dxy              306      6.019535  6 C  dxy        
     4     -4.744702  1 O  s                 59     -4.747147  2 O  s          

 Vector   73  Occ=0.000000D+00  E= 5.470096D-01
              MO Center=  6.2D-01,  9.9D-01, -1.3D+00, r^2= 1.1D+01
   Bfn.  Coefficient  Atom+Function         Bfn.  Coefficient  Atom+Function  
  ----- ------------  ---------------      ----- ------------  ---------------
   224     38.154746  5 C  s                279    -38.154435  6 C  s          
   225     17.971222  5 C  s                280    -17.971159  6 C  s          
   234    -12.921159  5 C  pz               289    -12.920416  6 C  pz         
     4     -4.376893  1 O  s                 59      4.383108  2 O  s          
   114     -4.386947  3 O  s                169      4.379516  4 O  s          

 Vector   74  Occ=0.000000D+00  E= 5.817839D-01
              MO Center=  6.2D-01,  9.9D-01, -1.3D+00, r^2= 7.5D+00
   Bfn.  Coefficient  Atom+Function         Bfn.  Coefficient  Atom+Function  
  ----- ------------  ---------------      ----- ------------  ---------------
   270      2.750772  5 C  fxyz             325      2.751833  6 C  fxyz       
   196     -1.465446  4 O  dxy               31      1.444952  1 O  dxy        
   141      1.444007  3 O  dxy               86     -1.424040  2 O  dxy        
   273      0.901182  5 C  fyyz             328      0.900303  6 C  fyyz       
   268     -0.879143  5 C  fxxz             323     -0.877625  6 C  fxxz       

 Vector   75  Occ=0.000000D+00  E= 5.892614D-01
              MO Center=  6.1D-01,  9.8D-01, -1.3D+00, r^2= 6.4D+00
   Bfn.  Coefficient  Atom+Function         Bfn.  Coefficient  Atom+Function  
  ----- ------------  ---------------      ----- ------------  ---------------
   254      2.376965  5 C  dyz                5      1.955500  1 O  s          
    60      1.593309  2 O  s                322      1.451608  6 C  fxxy       
   309      1.412472  6 C  dyz               34     -1.399194  1 O  dyz        
   115     -1.384695  3 O  s                307      1.378617  6 C  dxz        
   144     -1.303919  3 O  dyz              269     -1.227160  5 C  fxyy       

 Vector   76  Occ=0.000000D+00  E= 5.892909D-01
              MO Center=  6.2D-01,  9.9D-01, -1.4D+00, r^2= 6.4D+00
   Bfn.  Coefficient  Atom+Function         Bfn.  Coefficient  Atom+Function  
  ----- ------------  ---------------      ----- ------------  ---------------
   307     -2.409876  6 C  dxz              170      2.301542  4 O  s          
     5      1.928185  1 O  s                197      1.478999  4 O  dxz        
   252     -1.430490  5 C  dxz              254      1.428907  5 C  dyz        
   269      1.424814  5 C  fxyy              32      1.259655  1 O  dxz        
    67      1.237259  2 O  px               322      1.216208  6 C  fxxy       

 Vector   77  Occ=0.000000D+00  E= 5.895169D-01
              MO Center=  6.2D-01,  9.9D-01, -1.3D+00, r^2= 9.3D+00
   Bfn.  Coefficient  Atom+Function         Bfn.  Coefficient  Atom+Function  
  ----- ------------  ---------------      ----- ------------  ---------------
   115      7.195860  3 O  s                253     -7.211764  5 C  dyy        
   305     -7.192352  6 C  dxx               60      7.113819  2 O  s          
   170      6.919910  4 O  s                  5      6.833774  1 O  s          
   250     -3.940470  5 C  dxx              308     -3.947862  6 C  dyy        
   273      3.630486  5 C  fyyz             323     -3.616173  6 C  fxxz       

 Vector   78  Occ=0.000000D+00  E= 6.253482D-01
              MO Center=  6.2D-01,  9.9D-01, -1.3D+00, r^2= 1.0D+01
   Bfn.  Coefficient  Atom+Function         Bfn.  Coefficient  Atom+Function  
  ----- ------------  ---------------      ----- ------------  ---------------
   224     56.606058  5 C  s                279    -56.607467  6 C  s          
   234    -36.004685  5 C  pz               289    -36.004495  6 C  pz         
   255     20.514143  5 C  dzz              310    -20.517574  6 C  dzz        
   225    -15.585701  5 C  s                280     15.585101  6 C  s          
   253     13.276060  5 C  dyy              305    -13.311681  6 C  dxx        

 Vector   79  Occ=0.000000D+00  E= 6.318626D-01
              MO Center=  6.3D-01,  9.9D-01, -1.4D+00, r^2= 9.4D+00
   Bfn.  Coefficient  Atom+Function         Bfn.  Coefficient  Atom+Function  
  ----- ------------  ---------------      ----- ------------  ---------------
   307      4.414940  6 C  dxz              252      4.096931  5 C  dxz        
   254     -2.985827  5 C  dyz              232     -2.692037  5 C  px         
   115      2.447567  3 O  s                288     -2.401733  6 C  py         
     5     -2.387526  1 O  s                309     -2.300435  6 C  dyz        
   170     -2.172854  4 O  s                 60      2.157504  2 O  s          

 Vector   80  Occ=0.000000D+00  E= 6.318667D-01
              MO Center=  6.1D-01,  9.9D-01, -1.2D+00, r^2= 9.4D+00
   Bfn.  Coefficient  Atom+Function         Bfn.  Coefficient  Atom+Function  
  ----- ------------  ---------------      ----- ------------  ---------------
   254      4.471074  5 C  dyz              309      4.143710  6 C  dyz        
   307      2.988043  6 C  dxz              288      2.703668  6 C  py         
    60      2.443967  2 O  s                170     -2.407872  4 O  s          
   232     -2.402554  5 C  px               252      2.298261  5 C  dxz        
   115     -2.206961  3 O  s                  5      2.142931  1 O  s          

 Vector   81  Occ=0.000000D+00  E= 6.386290D-01
              MO Center=  6.2D-01,  9.9D-01, -1.3D+00, r^2= 7.3D+00
   Bfn.  Coefficient  Atom+Function         Bfn.  Coefficient  Atom+Function  
  ----- ------------  ---------------      ----- ------------  ---------------
   251      1.405902  5 C  dxy              306     -1.402349  6 C  dxy        
   199      1.090059  4 O  dyz               32      1.083028  1 O  dxz        
    89     -1.063963  2 O  dyz              142     -1.058724  3 O  dxz        
    68      0.822300  2 O  py               122     -0.823695  3 O  px         
    12      0.815052  1 O  px               178     -0.816127  4 O  py         

 Vector   82  Occ=0.000000D+00  E= 6.432794D-01
              MO Center=  6.2D-01,  9.8D-01, -1.3D+00, r^2= 9.8D+00
   Bfn.  Coefficient  Atom+Function         Bfn.  Coefficient  Atom+Function  
  ----- ------------  ---------------      ----- ------------  ---------------
   170      6.061505  4 O  s                 60     -6.030531  2 O  s          
   254     -5.985350  5 C  dyz                5     -5.487394  1 O  s          
   115      5.441346  3 O  s                309     -5.138694  6 C  dyz        
   232      4.500378  5 C  px               307     -4.259545  6 C  dxz        
   326     -3.820858  6 C  fxzz             288     -3.777771  6 C  py         

 Vector   83  Occ=0.000000D+00  E= 6.433028D-01
              MO Center=  6.2D-01,  9.9D-01, -1.3D+00, r^2= 9.8D+00
   Bfn.  Coefficient  Atom+Function         Bfn.  Coefficient  Atom+Function  
  ----- ------------  ---------------      ----- ------------  ---------------
     5      6.083588  1 O  s                115     -6.023102  3 O  s          
   307     -5.947275  6 C  dxz               60     -5.469094  2 O  s          
   170      5.474838  4 O  s                252     -5.095451  5 C  dxz        
   288      4.511429  6 C  py               254      4.281543  5 C  dyz        
   274     -3.847562  5 C  fyzz             232      3.773866  5 C  px         

 Vector   84  Occ=0.000000D+00  E= 6.557969D-01
              MO Center=  6.2D-01,  9.9D-01, -1.3D+00, r^2= 1.1D+01
   Bfn.  Coefficient  Atom+Function         Bfn.  Coefficient  Atom+Function  
  ----- ------------  ---------------      ----- ------------  ---------------
     5      9.624611  1 O  s                 60      9.640127  2 O  s          
   115      9.644369  3 O  s                170      9.626773  4 O  s          
   234     -7.060301  5 C  pz               289      7.066216  6 C  pz         
   253     -6.012093  5 C  dyy              305     -5.980747  6 C  dxx        
   308     -3.458018  6 C  dyy              250     -3.439060  5 C  dxx        

 Vector   85  Occ=0.000000D+00  E= 6.583071D-01
              MO Center=  6.2D-01,  9.8D-01, -1.3D+00, r^2= 5.6D+00
   Bfn.  Coefficient  Atom+Function         Bfn.  Coefficient  Atom+Function  
  ----- ------------  ---------------      ----- ------------  ---------------
    12      1.355011  1 O  px                68     -1.353007  2 O  py         
   122     -1.352280  3 O  px               178      1.340571  4 O  py         
    31      1.196849  1 O  dxy              196      1.193165  4 O  dxy        
   141      1.183905  3 O  dxy               86      1.174764  2 O  dxy        
   270      1.173938  5 C  fxyz             325     -1.145634  6 C  fxyz       

 Vector   86  Occ=0.000000D+00  E= 6.710453D-01
              MO Center=  6.2D-01,  9.8D-01, -1.3D+00, r^2= 8.2D+00
   Bfn.  Coefficient  Atom+Function         Bfn.  Coefficient  Atom+Function  
  ----- ------------  ---------------      ----- ------------  ---------------
   224     19.631739  5 C  s                279    -19.630855  6 C  s          
   255      6.128554  5 C  dzz              310     -6.140788  6 C  dzz        
   234     -5.515248  5 C  pz               289     -5.513893  6 C  pz         
   253      5.483590  5 C  dyy              305     -5.493975  6 C  dxx        
     5     -4.685934  1 O  s                170      4.661083  4 O  s          

 Vector   87  Occ=0.000000D+00  E= 6.771074D-01
              MO Center=  6.2D-01,  9.9D-01, -1.2D+00, r^2= 1.0D+01
   Bfn.  Coefficient  Atom+Function         Bfn.  Coefficient  Atom+Function  
  ----- ------------  ---------------      ----- ------------  ---------------
   233      6.012248  5 C  py               288     -5.399338  6 C  py         
     4     -4.833258  1 O  s                114      4.818406  3 O  s          
   230     -4.622517  5 C  py               169      4.574354  4 O  s          
    59     -4.525050  2 O  s                284      4.331416  6 C  px         
   272     -3.796426  5 C  fyyy             309     -3.734463  6 C  dyz        

 Vector   88  Occ=0.000000D+00  E= 6.771334D-01
              MO Center=  6.2D-01,  9.9D-01, -1.4D+00, r^2= 1.0D+01
   Bfn.  Coefficient  Atom+Function         Bfn.  Coefficient  Atom+Function  
  ----- ------------  ---------------      ----- ------------  ---------------
   287      6.001177  6 C  px               232     -5.380475  5 C  px         
    59      4.854942  2 O  s                169     -4.798666  4 O  s          
   284     -4.616454  6 C  px               114      4.563733  3 O  s          
     4     -4.535570  1 O  s                230     -4.342852  5 C  py         
   321     -3.787726  6 C  fxxx             252      3.694317  5 C  dxz        

 Vector   89  Occ=0.000000D+00  E= 6.869807D-01
              MO Center=  6.2D-01,  9.9D-01, -1.3D+00, r^2= 8.5D+00
   Bfn.  Coefficient  Atom+Function         Bfn.  Coefficient  Atom+Function  
  ----- ------------  ---------------      ----- ------------  ---------------
   224      9.215710  5 C  s                279      9.215308  6 C  s          
   255     -7.119991  5 C  dzz              310     -7.119840  6 C  dzz        
   225      4.301431  5 C  s                280      4.306003  6 C  s          
     4     -3.705513  1 O  s                169     -3.696193  4 O  s          
    59     -3.676885  2 O  s                114     -3.665428  3 O  s          

 Vector   90  Occ=0.000000D+00  E= 7.366292D-01
              MO Center=  6.5D-01,  1.2D+00, -1.0D+00, r^2= 6.6D+00
   Bfn.  Coefficient  Atom+Function         Bfn.  Coefficient  Atom+Function  
  ----- ------------  ---------------      ----- ------------  ---------------
   232      4.848864  5 C  px               307     -3.985007  6 C  dxz        
   287     -3.505528  6 C  px               254      3.250204  5 C  dyz        
    12     -2.914010  1 O  px               309     -2.305220  6 C  dyz        
   169      2.087482  4 O  s                 59     -2.077026  2 O  s          
   288      2.058272  6 C  py               122     -1.960060  3 O  px         

 Vector   91  Occ=0.000000D+00  E= 7.366750D-01
              MO Center=  5.9D-01,  1.0D+00, -1.6D+00, r^2= 6.6D+00
   Bfn.  Coefficient  Atom+Function         Bfn.  Coefficient  Atom+Function  
  ----- ------------  ---------------      ----- ------------  ---------------
   288      5.035322  6 C  py               254      4.229397  5 C  dyz        
   233     -3.619322  5 C  py               307      3.241348  6 C  dxz        
    68     -2.690467  2 O  py               178     -2.377498  4 O  py         
   252     -2.296494  5 C  dxz                4      2.171998  1 O  s          
   114     -2.140040  3 O  s                269     -2.032346  5 C  fxyy       

 Vector   92  Occ=0.000000D+00  E= 7.370196D-01
              MO Center=  6.2D-01,  8.1D-01, -1.3D+00, r^2= 6.3D+00
   Bfn.  Coefficient  Atom+Function         Bfn.  Coefficient  Atom+Function  
  ----- ------------  ---------------      ----- ------------  ---------------
   306     -2.539821  6 C  dxy              122      2.518061  3 O  px         
   251     -2.499067  5 C  dxy               68      1.930120  2 O  py         
   178     -1.704322  4 O  py               307      1.443297  6 C  dxz        
   232     -1.381982  5 C  px                12     -1.105968  1 O  px         
   287      0.926103  6 C  px               250      0.838027  5 C  dxx        

 Vector   93  Occ=0.000000D+00  E= 7.473873D-01
              MO Center=  6.2D-01,  9.9D-01, -1.3D+00, r^2= 8.9D+00
   Bfn.  Coefficient  Atom+Function         Bfn.  Coefficient  Atom+Function  
  ----- ------------  ---------------      ----- ------------  ---------------
   224     48.038160  5 C  s                279    -48.036197  6 C  s          
   234    -26.722677  5 C  pz               289    -26.723663  6 C  pz         
   225     22.073864  5 C  s                280    -22.070132  6 C  s          
     5    -11.277558  1 O  s                 60     11.254124  2 O  s          
   115    -11.264904  3 O  s                170     11.266940  4 O  s          

 Vector   94  Occ=0.000000D+00  E= 7.600379D-01
              MO Center=  6.2D-01,  9.9D-01, -1.3D+00, r^2= 1.1D+01
   Bfn.  Coefficient  Atom+Function         Bfn.  Coefficient  Atom+Function  
  ----- ------------  ---------------      ----- ------------  ---------------
     5     12.225173  1 O  s                 60     12.254704  2 O  s          
   115     12.251348  3 O  s                170     12.240358  4 O  s          
   255     -8.636655  5 C  dzz              310     -8.647887  6 C  dzz        
   225     -3.961223  5 C  s                280     -3.977768  6 C  s          
   305     -3.877531  6 C  dxx              253     -3.848557  5 C  dyy        

 Vector   95  Occ=0.000000D+00  E= 8.028055D-01
              MO Center=  6.0D-01,  9.9D-01, -1.1D+00, r^2= 7.4D+00
   Bfn.  Coefficient  Atom+Function         Bfn.  Coefficient  Atom+Function  
  ----- ------------  ---------------      ----- ------------  ---------------
     4      6.001640  1 O  s                114     -5.989685  3 O  s          
   233      6.016397  5 C  py               287     -5.035394  6 C  px         
[...]
  ----- ------------  ---------------      ----- ------------  ---------------
   326     12.006512  6 C  fxzz              59     -9.702678  2 O  s          
   169      9.702307  4 O  s                284      8.498529  6 C  px         
    57      7.856786  2 O  s                167     -7.863554  4 O  s          
   287     -7.487998  6 C  px               321      6.079517  6 C  fxxx       
    64      5.664075  2 O  px               174      5.423125  4 O  px         

 Vector  311  Occ=0.000000D+00  E= 1.349744D+01
              MO Center=  6.0D-01,  9.9D-01, -9.6D-01, r^2= 4.6D+00
   Bfn.  Coefficient  Atom+Function         Bfn.  Coefficient  Atom+Function  
  ----- ------------  ---------------      ----- ------------  ---------------
   119      9.082947  3 O  px                 9      8.974830  1 O  px         
    65     -6.658540  2 O  py               175     -6.598162  4 O  py         
   146     -4.560100  3 O  fxxx             149     -4.552486  3 O  fxyy       
   151     -4.541982  3 O  fxzz              36     -4.506486  1 O  fxxx       
    39     -4.498289  1 O  fxyy              41     -4.479397  1 O  fxzz       

 Vector  312  Occ=0.000000D+00  E= 1.349756D+01
              MO Center=  6.4D-01,  9.8D-01, -1.7D+00, r^2= 4.6D+00
   Bfn.  Coefficient  Atom+Function         Bfn.  Coefficient  Atom+Function  
  ----- ------------  ---------------      ----- ------------  ---------------
   175      9.091685  4 O  py                65      9.011127  2 O  py         
     9      6.725288  1 O  px               119      6.505130  3 O  px         
   202     -4.562335  4 O  fxxy             207     -4.565252  4 O  fyyy       
   209     -4.538788  4 O  fyzz              92     -4.510579  2 O  fxxy       
    97     -4.524137  2 O  fyyy              99     -4.505151  2 O  fyzz       

 Vector  313  Occ=0.000000D+00  E= 1.354864D+01
              MO Center=  6.2D-01,  9.9D-01, -1.3D+00, r^2= 4.1D+00
   Bfn.  Coefficient  Atom+Function         Bfn.  Coefficient  Atom+Function  
  ----- ------------  ---------------      ----- ------------  ---------------
   224     19.119715  5 C  s                279    -19.128811  6 C  s          
   234     -9.035660  5 C  pz               289     -9.030641  6 C  pz         
    66      6.052306  2 O  pz               121      6.030036  3 O  pz         
    11      5.970183  1 O  pz               176      5.946370  4 O  pz         
   225      4.904766  5 C  s                280     -4.904784  6 C  s          

 Vector  314  Occ=0.000000D+00  E= 1.361225D+01
              MO Center=  6.2D-01,  9.9D-01, -1.3D+00, r^2= 4.6D+00
   Bfn.  Coefficient  Atom+Function         Bfn.  Coefficient  Atom+Function  
  ----- ------------  ---------------      ----- ------------  ---------------
    65     -8.063155  2 O  py               119     -8.059039  3 O  px         
     9      7.993635  1 O  px               175      8.023023  4 O  py         
    99      4.112430  2 O  fyzz             151      4.109810  3 O  fxzz       
    41     -4.076709  1 O  fxzz             209     -4.091520  4 O  fyzz       
    97      4.062587  2 O  fyyy             146      4.060773  3 O  fxxx       

 Vector  315  Occ=0.000000D+00  E= 1.388357D+01
              MO Center=  6.2D-01,  9.9D-01, -1.3D+00, r^2= 4.5D+00
   Bfn.  Coefficient  Atom+Function         Bfn.  Coefficient  Atom+Function  
  ----- ------------  ---------------      ----- ------------  ---------------
     9      8.136925  1 O  px                65      8.158764  2 O  py         
   119     -8.140536  3 O  px               175     -8.156064  4 O  py         
    36     -4.104589  1 O  fxxx              39     -4.099064  1 O  fxyy       
    41     -4.098155  1 O  fxzz              92     -4.112267  2 O  fxxy       
    97     -4.116262  2 O  fyyy              99     -4.105468  2 O  fyzz       

 Vector  316  Occ=0.000000D+00  E= 1.388618D+01
              MO Center=  6.2D-01,  9.9D-01, -1.3D+00, r^2= 3.9D+00
   Bfn.  Coefficient  Atom+Function         Bfn.  Coefficient  Atom+Function  
  ----- ------------  ---------------      ----- ------------  ---------------
   224     10.191522  5 C  s                279     10.179154  6 C  s          
    59     -8.746225  2 O  s                114     -8.775173  3 O  s          
     4     -8.692466  1 O  s                169     -8.723550  4 O  s          
   273      7.695507  5 C  fyyz             323     -7.594873  6 C  fxxz       
     2     -6.063473  1 O  s                 57     -6.063519  2 O  s          

 Vector  317  Occ=0.000000D+00  E= 1.440122D+01
              MO Center=  6.2D-01,  9.9D-01, -1.3D+00, r^2= 4.5D+00
   Bfn.  Coefficient  Atom+Function         Bfn.  Coefficient  Atom+Function  
  ----- ------------  ---------------      ----- ------------  ---------------
    66     -7.589502  2 O  pz               121      7.520102  3 O  pz         
    11      7.091254  1 O  pz               176     -7.017581  4 O  pz         
   234     -7.000830  5 C  pz               289      7.002095  6 C  pz         
    69     -5.388877  2 O  pz               124      5.340687  3 O  pz         
    14      5.107864  1 O  pz               179     -5.056842  4 O  pz         

 Vector  318  Occ=0.000000D+00  E= 1.446490D+01
              MO Center=  6.5D-01,  9.8D-01, -1.7D+00, r^2= 4.4D+00
   Bfn.  Coefficient  Atom+Function         Bfn.  Coefficient  Atom+Function  
  ----- ------------  ---------------      ----- ------------  ---------------
   307     -9.183221  6 C  dxz               66      8.954190  2 O  pz         
   176     -8.399303  4 O  pz               121     -6.396994  3 O  pz         
    11      6.284069  1 O  pz               254      5.718202  5 C  dyz        
   174      5.145834  4 O  px               232      4.702756  5 C  px         
    69      4.669129  2 O  pz                98     -4.451493  2 O  fyyz       

 Vector  319  Occ=0.000000D+00  E= 1.446500D+01
              MO Center=  6.0D-01,  9.9D-01, -9.0D-01, r^2= 4.4D+00
   Bfn.  Coefficient  Atom+Function         Bfn.  Coefficient  Atom+Function  
  ----- ------------  ---------------      ----- ------------  ---------------
   254      9.245655  5 C  dyz              121     -8.867888  3 O  pz         
    11      8.482191  1 O  pz                66     -6.631708  2 O  pz         
   176      6.048021  4 O  pz               307      5.688362  6 C  dxz        
   288      4.713234  6 C  py                10      4.680525  1 O  py         
   124     -4.597571  3 O  pz               148      4.403905  3 O  fxxz       

 Vector  320  Occ=0.000000D+00  E= 1.509825D+01
              MO Center=  6.2D-01,  9.9D-01, -1.3D+00, r^2= 4.4D+00
   Bfn.  Coefficient  Atom+Function         Bfn.  Coefficient  Atom+Function  
  ----- ------------  ---------------      ----- ------------  ---------------
   177     -7.261176  4 O  px                13      7.207038  1 O  py         
   123     -7.168284  3 O  py                67      7.086782  2 O  px         
   174     -6.842241  4 O  px                10      6.698060  1 O  py         
   120     -6.603582  3 O  py                64      6.435188  2 O  px         
   234     -5.738511  5 C  pz               289     -5.738417  6 C  pz         

 Vector  321  Occ=0.000000D+00  E= 1.623721D+01
              MO Center=  6.2D-01,  9.9D-01, -1.3D+00, r^2= 4.4D+00
   Bfn.  Coefficient  Atom+Function         Bfn.  Coefficient  Atom+Function  
  ----- ------------  ---------------      ----- ------------  ---------------
   224     16.867767  5 C  s                279     16.863048  6 C  s          
     2     -5.893033  1 O  s                 57     -5.901207  2 O  s          
   112     -5.905812  3 O  s                167     -5.896164  4 O  s          
   234      5.605932  5 C  pz               289     -5.608395  6 C  pz         
   114     -5.071457  3 O  s                  4     -5.035649  1 O  s          

 Vector  322  Occ=0.000000D+00  E= 1.650552D+01
              MO Center=  6.1D-01,  9.9D-01, -1.2D+00, r^2= 4.1D+00
   Bfn.  Coefficient  Atom+Function         Bfn.  Coefficient  Atom+Function  
  ----- ------------  ---------------      ----- ------------  ---------------
   114     -8.551194  3 O  s                  4      8.499621  1 O  s          
   169      7.931625  4 O  s                 59     -7.873688  2 O  s          
   112     -5.500718  3 O  s                  2      5.459067  1 O  s          
   167      5.108648  4 O  s                 57     -5.050452  2 O  s          
    67      4.750944  2 O  px               123      4.617398  3 O  py         

 Vector  323  Occ=0.000000D+00  E= 1.650571D+01
              MO Center=  6.2D-01,  9.8D-01, -1.4D+00, r^2= 4.1D+00
   Bfn.  Coefficient  Atom+Function         Bfn.  Coefficient  Atom+Function  
  ----- ------------  ---------------      ----- ------------  ---------------
   169     -8.567083  4 O  s                 59      8.488451  2 O  s          
     4      7.945133  1 O  s                114     -7.862859  3 O  s          
   167     -5.517916  4 O  s                 57      5.441099  2 O  s          
     2      5.121887  1 O  s                112     -5.036105  3 O  s          
    67     -4.784443  2 O  px               123      4.553895  3 O  py         

 Vector  324  Occ=0.000000D+00  E= 1.652154D+01
              MO Center=  6.3D-01,  9.9D-01, -1.3D+00, r^2= 4.0D+00
   Bfn.  Coefficient  Atom+Function         Bfn.  Coefficient  Atom+Function  
  ----- ------------  ---------------      ----- ------------  ---------------
   224     19.698718  5 C  s                279    -19.700607  6 C  s          
    59      6.406825  2 O  s                114     -6.336051  3 O  s          
     4     -6.295677  1 O  s                169      6.226050  4 O  s          
    57      6.076118  2 O  s                  2     -6.007440  1 O  s          
   112     -6.027284  3 O  s                167      5.959894  4 O  s          

 Vector  325  Occ=0.000000D+00  E= 1.757326D+01
              MO Center=  6.2D-01,  1.0D+00, -1.3D+00, r^2= 3.8D+00
   Bfn.  Coefficient  Atom+Function         Bfn.  Coefficient  Atom+Function  
  ----- ------------  ---------------      ----- ------------  ---------------
   224     27.936288  5 C  s                279     27.931355  6 C  s          
   234     10.587206  5 C  pz               289    -10.594237  6 C  pz         
    67      6.071434  2 O  px               123      6.025193  3 O  py         
    13     -5.711051  1 O  py                64      5.715836  2 O  px         
   177     -5.638913  4 O  px               120      5.600489  3 O  py         

 Vector  326  Occ=0.000000D+00  E= 1.766958D+01
              MO Center=  6.1D-01,  9.8D-01, -1.2D+00, r^2= 3.8D+00
   Bfn.  Coefficient  Atom+Function         Bfn.  Coefficient  Atom+Function  
  ----- ------------  ---------------      ----- ------------  ---------------
   233     11.183204  5 C  py               287      9.441340  6 C  px         
    67      8.518790  2 O  px               123      7.880465  3 O  py         
    13      7.768245  1 O  py               177      7.752467  4 O  px         
    64      6.683285  2 O  px                14     -6.583275  1 O  pz         
   179      6.442529  4 O  pz               120      6.381436  3 O  py         

 Vector  327  Occ=0.000000D+00  E= 1.767056D+01
              MO Center=  6.3D-01,  9.8D-01, -1.4D+00, r^2= 3.8D+00
   Bfn.  Coefficient  Atom+Function         Bfn.  Coefficient  Atom+Function  
  ----- ------------  ---------------      ----- ------------  ---------------
   287     11.169728  6 C  px               233     -9.468336  5 C  py         
    67      8.271790  2 O  px               123     -8.202834  3 O  py         
    13     -8.105696  1 O  py               177      7.351469  4 O  px         
    64      6.669818  2 O  px               179      6.676517  4 O  pz         
   120     -6.460867  3 O  py                10     -6.417733  1 O  py         

 Vector  328  Occ=0.000000D+00  E= 1.799395D+01
              MO Center=  6.2D-01,  9.9D-01, -1.3D+00, r^2= 4.1D+00
   Bfn.  Coefficient  Atom+Function         Bfn.  Coefficient  Atom+Function  
  ----- ------------  ---------------      ----- ------------  ---------------
   224     30.177116  5 C  s                279    -30.182661  6 C  s          
   273      9.030257  5 C  fyyz             323      8.949733  6 C  fxxz       
   253      7.651713  5 C  dyy              305     -7.634715  6 C  dxx        
   231      5.638015  5 C  pz               286      5.638925  6 C  pz         
   176      5.515911  4 O  pz                11      5.374473  1 O  pz         

 Vector  329  Occ=0.000000D+00  E= 2.804593D+01
              MO Center=  6.2D-01,  9.9D-01, -1.3D+00, r^2= 2.3D+00
   Bfn.  Coefficient  Atom+Function         Bfn.  Coefficient  Atom+Function  
  ----- ------------  ---------------      ----- ------------  ---------------
   224     36.014121  5 C  s                279    -36.190696  6 C  s          
   222    -21.905074  5 C  s                277     21.470178  6 C  s          
   289    -13.884741  6 C  pz               234    -13.780788  5 C  pz         
   253     12.231995  5 C  dyy              305    -12.114646  6 C  dxx        
     4     11.067728  1 O  s                114     11.044311  3 O  s          

 Vector  330  Occ=0.000000D+00  E= 2.808040D+01
              MO Center=  6.2D-01,  9.9D-01, -1.3D+00, r^2= 2.2D+00
   Bfn.  Coefficient  Atom+Function         Bfn.  Coefficient  Atom+Function  
  ----- ------------  ---------------      ----- ------------  ---------------
   277     22.165096  6 C  s                222     21.734829  5 C  s          
   276     10.911959  6 C  s                221     10.699538  5 C  s          
    59    -10.192706  2 O  s                169    -10.170840  4 O  s          
     4     -9.948016  1 O  s                114     -9.976191  3 O  s          
   224      9.227082  5 C  s                 67      8.534875  2 O  px         


 center of mass
 --------------
 x =   1.17226538 y =   1.86526532 z =  -2.46359917

 moments of inertia (a.u.)
 ------------------
         624.330078593890           0.450222918208          23.771389132536
           0.450222918208         626.000804185061          -5.601808929066
          23.771389132536          -5.601808929066         297.997225147750

     Multipole analysis of the density
     ---------------------------------

     L   x y z        total         alpha         beta         nuclear
     -   - - -        -----         -----         ----         -------
     0   0 0 0     -0.000000    -22.000000    -22.000000     44.000000

     1   1 0 0      0.000153    -25.789762    -25.789762     51.579677
     1   0 1 0      0.000736    -41.035468    -41.035468     82.071671
     1   0 0 1      0.000023     54.199193     54.199193   -108.398364

     2   2 0 0    -25.379607    -80.392730    -80.392730    135.405853
     2   1 1 0      0.000849    -47.991878    -47.991878     95.984606
     2   1 0 1     -0.060255     69.450128     69.450128   -138.960512
     2   0 2 0    -25.380367   -126.285501   -126.285501    227.190634
     2   0 1 1      0.011421     99.700735     99.700735   -199.390048
     2   0 0 2    -24.553124   -264.876966   -264.876966    505.200809


 Task  times  cpu:       83.7s     wall:       88.1s


                                NWChem Input Module
                                -------------------


 Summary of allocated global arrays
-----------------------------------
  No active global arrays


MA_summarize_allocated_blocks: starting scan ...
heap block 'gridpts', handle 77, address 0x1159ca18:
	type of elements:		double precision
	number of elements:		33554432
	address of client space:	0x1159ca80
	index for client space:		11781289
	total number of bytes:		268435568
MA_summarize_allocated_blocks: scan completed: 1 heap block, 0 stack blocks
MA usage statistics:

	allocation statistics:
					      heap	     stack
					      ----	     -----
	current number of blocks	         1	         0
	maximum number of blocks	        21	        53
	current total bytes		 268435568	         0
	maximum total bytes		 269962704	  36949384
	maximum total K-bytes		    269963	     36950
	maximum total M-bytes		       270	        37


                                     CITATION
                                     --------
                Please cite the following reference when publishing
                           results obtained with NWChem:

          E. Apra, E. J. Bylaska, W. A. de Jong, N. Govind, K. Kowalski,
       T. P. Straatsma, M. Valiev, H. J. J. van Dam, Y. Alexeev, J. Anchell,
       V. Anisimov, F. W. Aquino, R. Atta-Fynn, J. Autschbach, N. P. Bauman,
     J. C. Becca, D. E. Bernholdt, K. Bhaskaran-Nair, S. Bogatko, P. Borowski,
         J. Boschen, J. Brabec, A. Bruner, E. Cauet, Y. Chen, G. N. Chuev,
      C. J. Cramer, J. Daily, M. J. O. Deegan, T. H. Dunning Jr., M. Dupuis,
   K. G. Dyall, G. I. Fann, S. A. Fischer, A. Fonari, H. Fruchtl, L. Gagliardi,
      J. Garza, N. Gawande, S. Ghosh, K. Glaesemann, A. W. Gotz, J. Hammond,
       V. Helms, E. D. Hermes, K. Hirao, S. Hirata, M. Jacquelin, L. Jensen,
   B. G. Johnson, H. Jonsson, R. A. Kendall, M. Klemm, R. Kobayashi, V. Konkov,
      S. Krishnamoorthy, M. Krishnan, Z. Lin, R. D. Lins, R. J. Littlefield,
      A. J. Logsdail, K. Lopata, W. Ma, A. V. Marenich, J. Martin del Campo,
   D. Mejia-Rodriguez, J. E. Moore, J. M. Mullin, T. Nakajima, D. R. Nascimento,
    J. A. Nichols, P. J. Nichols, J. Nieplocha, A. Otero-de-la-Roza, B. Palmer,
    A. Panyala, T. Pirojsirikul, B. Peng, R. Peverati, J. Pittner, L. Pollack,
   R. M. Richard, P. Sadayappan, G. C. Schatz, W. A. Shelton, D. W. Silverstein,
   D. M. A. Smith, T. A. Soares, D. Song, M. Swart, H. L. Taylor, G. S. Thomas,
            V. Tipparaju, D. G. Truhlar, K. Tsemekhman, T. Van Voorhis,
      A. Vazquez-Mayagoitia, P. Verma, O. Villa, A. Vishnu, K. D. Vogiatzis,
        D. Wang, J. H. Weare, M. J. Williamson, T. L. Windus, K. Wolinski,
        A. T. Wong, Q. Wu, C. Yang, Q. Yu, M. Zacharias, Z. Zhang, Y. Zhao,
                                and R. J. Harrison
                        "NWChem: Past, present, and future
                         J. Chem. Phys. 152, 184102 (2020)
                               doi:10.1063/5.0004997

                                      AUTHORS
                                      -------
  E. Apra, E. J. Bylaska, N. Govind, K. Kowalski, M. Valiev, D. Mejia-Rodriguez,
       A. Kunitsa, N. P. Bauman, A. Panyala, W. A. de Jong, T. P. Straatsma,
   H. J. J. van Dam, D. Wang, T. L. Windus, J. Hammond, J. Autschbach, A. Woods,
    K. Bhaskaran-Nair, J. Brabec, K. Lopata, S. A. Fischer, S. Krishnamoorthy,
     M. Jacquelin, W. Ma, M. Klemm, O. Villa, Y. Chen, V. Anisimov, F. Aquino,
     S. Hirata, M. T. Hackler, E. Hermes, L. Jensen, J. E. Moore, J. C. Becca,
      V. Konjkov, T. Risthaus, M. Malagoli, A. Marenich, A. Otero-de-la-Roza,
        J. Mullin, P. Nichols, R. Peverati, J. Pittner, Y. Zhao, P.-D. Fan,
        A. Fonari, M. J. Williamson, R. J. Harrison, J. R. Rehr, M. Dupuis,
     D. Silverstein, D. M. A. Smith, J. Nieplocha, V. Tipparaju, M. Krishnan,
     B. E. Van Kuiken, A. Vazquez-Mayagoitia, M. Swart, Q. Wu, T. Van Voorhis,
     A. A. Auer, M. Nooijen, L. D. Crosby, E. Brown, G. Cisneros, G. I. Fann,
   H. Fruchtl, J. Garza, K. Hirao, R. A. Kendall, J. A. Nichols, K. Tsemekhman,
    K. Wolinski, J. Anchell, D. E. Bernholdt, P. Borowski, T. Clark, D. Clerc,
   H. Dachsel, M. J. O. Deegan, K. Dyall, D. Elwood, E. Glendening, M. Gutowski,
   A. C. Hess, J. Jaffe, B. G. Johnson, J. Ju, R. Kobayashi, R. Kutteh, Z. Lin,
   R. Littlefield, X. Long, B. Meng, T. Nakajima, S. Niu, L. Pollack, M. Rosing,
   K. Glaesemann, G. Sandrone, M. Stave, H. Taylor, G. Thomas, J. H. van Lenthe,
                               A. T. Wong, Z. Zhang.

 Total times  cpu:       83.8s     wall:       88.2s
