 argument  1 = 0e/mol.nwi
                                         
                                         


             Northwest Computational Chemistry Package (NWChem) 7.2.2
             --------------------------------------------------------


                    Environmental Molecular Sciences Laboratory
                       Pacific Northwest National Laboratory
                                Richland, WA 99352

                              Copyright (c) 1994-2022
                       Pacific Northwest National Laboratory
                            Battelle Memorial Institute

             NWChem is an open-source computational chemistry package
                        distributed under the terms of the
                      Educational Community License (ECL) 2.0
             A copy of the license is included with this distribution
                              in the LICENSE.TXT file

                                  ACKNOWLEDGMENT
                                  --------------

            This software and its documentation were developed at the
            EMSL at Pacific Northwest National Laboratory, a multiprogram
            national laboratory, operated for the U.S. Department of Energy
            by Battelle under Contract Number DE-AC05-76RL01830. Support
            for this work was provided by the Department of Energy Office
            of Biological and Environmental Research, Office of Basic
            Energy Sciences, and the Office of Advanced Scientific Computing.


           Job information
           ---------------

    hostname        = r241.ib.bridges2.psc.edu
    program         = nwchem
    date            = Tue Oct  1 15:18:07 2024

    compiled        = Mon_Mar_18_17:03:37_2024
    source          = /ocean/projects/pscstaff/mmadrid/nwchem-7.2.2
    nwchem branch   = 7.2.2
    nwchem revision = 74936fb9
    ga revision     = 5.8.0
    use scalapack   = F
    input           = 0e/mol.nwi
    prefix          = dft.
    data base       = .//dft.db
    status          = startup
    nproc           =       15
    time left       =     -1s



           Memory information
           ------------------

    heap     =   67108860 doubles =    512.0 Mbytes
    stack    =   67108865 doubles =    512.0 Mbytes
    global   =  134217728 doubles =   1024.0 Mbytes (distinct from heap & stack)
    total    =  268435453 doubles =   2048.0 Mbytes
    verify   = yes
    hardfail = no 


           Directory information
           ---------------------

  0 permanent = ./
  0 scratch   = /jet/home/hmt47/nwchem_scratch/




                                NWChem Input Module
                                -------------------


  library name resolved from: environment
  library file name is: </opt/packages/nwchem/nwchem7.2.2/share/nwchem/libraries/>
  


 Summary of "ao basis" -> "" (cartesian)
 ------------------------------------------------------------------------------
       Tag                 Description            Shells   Functions and Types
 ---------------- ------------------------------  ------  ---------------------
 *                        aug-cc-pVTZ                 on all atoms 


  pbe96 is a nonlocal functional; adding pw91lda local functional. 

 Scaling coordinates for geometry "geometry" by  1.889725989
 (inverse scale =  0.529177249)



                             Geometry "geometry" -> ""
                             -------------------------

 Output coordinates in angstroms (scale by  1.889725989 to convert to a.u.)

  No.       Tag          Charge          X              Y              Z
 ---- ---------------- ---------- -------------- -------------- --------------
    1 S                   16.0000    -0.00577748     0.00356329    -0.06051397
    2 O                    8.0000    -0.16964765     1.56209415    -0.01562276
    3 O                    8.0000    -1.43926407    -0.63077099    -0.01614626
    4 O                    8.0000     0.75332320    -0.43604245     1.23886098

      Atomic Mass 
      ----------- 

      S                 31.972070
      O                 15.994910


 Effective nuclear repulsion energy (a.u.)     169.7022734960

            Nuclear Dipole moment (a.u.) 
            ----------------------------
        X                 Y               Z
 ---------------- ---------------- ----------------
   -13.1093085599     7.5952969021    16.4189072308


            XYZ format geometry
            -------------------
     4
 geometry
 S                    -0.00577748     0.00356329    -0.06051397
 O                    -0.16964765     1.56209415    -0.01562276
 O                    -1.43926407    -0.63077099    -0.01614626
 O                     0.75332320    -0.43604245     1.23886098

 ==============================================================================
                                internuclear distances
 ------------------------------------------------------------------------------
       center one      |      center two      | atomic units |  angstroms
 ------------------------------------------------------------------------------
    2 O                |   1 S                |     2.96265  |     1.56776
    3 O                |   1 S                |     2.96346  |     1.56819
    4 O                |   1 S                |     2.96263  |     1.56776
 ------------------------------------------------------------------------------
                         number of included internuclear distances:          3
 ==============================================================================



 ==============================================================================
                                 internuclear angles
 ------------------------------------------------------------------------------
        center 1       |       center 2       |       center 3       |  degrees
 ------------------------------------------------------------------------------
    2 O                |   1 S                |   3 O                |   107.80
    2 O                |   1 S                |   4 O                |   107.80
    3 O                |   1 S                |   4 O                |   107.80
 ------------------------------------------------------------------------------
                            number of included internuclear angles:          3
 ==============================================================================




                                 NWChem DFT Module
                                 -----------------


                      Basis "ao basis" -> "ao basis" (cartesian)
                      -----
  S (Sulphur)
  -----------
            Exponent  Coefficients 
       -------------- ---------------------------------------------------------
  1 S  3.74100000E+05  0.000054
  1 S  5.60500000E+04  0.000421
  1 S  1.27600000E+04  0.002207
  1 S  3.61500000E+03  0.009193
  1 S  1.18300000E+03  0.032112
  1 S  4.28800000E+02  0.094668
  1 S  1.67800000E+02  0.223630
  1 S  6.94700000E+01  0.374393
  1 S  2.98400000E+01  0.329108
  1 S  1.27200000E+01  0.084704
  1 S  5.24400000E+00  0.000441
  1 S  2.21900000E+00  0.001648
  1 S  3.49000000E-01  0.000301

  2 S  3.74100000E+05 -0.000015
  2 S  5.60500000E+04 -0.000116
  2 S  1.27600000E+04 -0.000612
  2 S  3.61500000E+03 -0.002554
  2 S  1.18300000E+03 -0.009087
  2 S  4.28800000E+02 -0.027705
  2 S  1.67800000E+02 -0.072002
  2 S  6.94700000E+01 -0.146439
  2 S  2.98400000E+01 -0.195150
  2 S  1.27200000E+01  0.008192
  2 S  5.24400000E+00  0.516601
  2 S  2.21900000E+00  0.542178
  2 S  3.49000000E-01 -0.009181

  3 S  3.74100000E+05  0.000004
  3 S  5.60500000E+04  0.000034
  3 S  1.27600000E+04  0.000178
  3 S  3.61500000E+03  0.000741
  3 S  1.18300000E+03  0.002646
  3 S  4.28800000E+02  0.008075
  3 S  1.67800000E+02  0.021228
  3 S  6.94700000E+01  0.043832
  3 S  2.98400000E+01  0.061272
  3 S  1.27200000E+01 -0.003615
  3 S  5.24400000E+00 -0.204510
  3 S  2.21900000E+00 -0.381871
  3 S  3.49000000E-01  0.714147

  4 S  7.76700000E-01  1.000000

  5 S  1.32200000E-01  1.000000

  6 S  4.97000000E-02  1.000000

  7 P  5.74400000E+02  0.002423
  7 P  1.35800000E+02  0.019280
  7 P  4.31900000E+01  0.088540
  7 P  1.58700000E+01  0.254654
  7 P  6.20800000E+00  0.433984
  7 P  2.48300000E+00  0.354953
  7 P  3.22900000E-01 -0.005030

  8 P  5.74400000E+02 -0.000620
  8 P  1.35800000E+02 -0.004939
  8 P  4.31900000E+01 -0.023265
  8 P  1.58700000E+01 -0.068520
  8 P  6.20800000E+00 -0.123896
  8 P  2.48300000E+00 -0.096950
  8 P  3.22900000E-01  0.569394

  9 P  8.68800000E-01  1.000000

 10 P  1.09800000E-01  1.000000

 11 P  3.51000000E-02  1.000000

 12 D  2.69000000E-01  1.000000

 13 D  8.19000000E-01  1.000000

 14 D  1.01000000E-01  1.000000

 15 F  5.57000000E-01  1.000000

 16 F  2.18000000E-01  1.000000

  O (Oxygen)
  ----------
            Exponent  Coefficients 
       -------------- ---------------------------------------------------------
  1 S  1.53300000E+04  0.000508
  1 S  2.29900000E+03  0.003929
  1 S  5.22400000E+02  0.020243
  1 S  1.47300000E+02  0.079181
  1 S  4.75500000E+01  0.230687
  1 S  1.67600000E+01  0.433118
  1 S  6.20700000E+00  0.350260
  1 S  6.88200000E-01 -0.008154

  2 S  1.53300000E+04 -0.000115
  2 S  2.29900000E+03 -0.000895
  2 S  5.22400000E+02 -0.004636
  2 S  1.47300000E+02 -0.018724
  2 S  4.75500000E+01 -0.058463
  2 S  1.67600000E+01 -0.136463
  2 S  6.20700000E+00 -0.175740
  2 S  6.88200000E-01  0.603418

  3 S  1.75200000E+00  1.000000

  4 S  2.38400000E-01  1.000000

  5 S  7.37600000E-02  1.000000

  6 P  3.44600000E+01  0.015928
  6 P  7.74900000E+00  0.099740
  6 P  2.28000000E+00  0.310492

  7 P  7.15600000E-01  1.000000

  8 P  2.14000000E-01  1.000000

  9 P  5.97400000E-02  1.000000

 10 D  2.31400000E+00  1.000000

 11 D  6.45000000E-01  1.000000

 12 D  2.14000000E-01  1.000000

 13 F  1.42800000E+00  1.000000

 14 F  5.00000000E-01  1.000000



 Summary of "ao basis" -> "ao basis" (cartesian)
 ------------------------------------------------------------------------------
       Tag                 Description            Shells   Functions and Types
 ---------------- ------------------------------  ------  ---------------------
 S                        aug-cc-pVTZ               16       59   6s5p3d2f
 O                        aug-cc-pVTZ               14       55   5s4p3d2f




 Summary of "ao basis" -> "ao basis" (cartesian)
 ------------------------------------------------------------------------------
       Tag                 Description            Shells   Functions and Types
 ---------------- ------------------------------  ------  ---------------------
 S                        aug-cc-pVTZ               16       59   6s5p3d2f
 O                        aug-cc-pVTZ               14       55   5s4p3d2f


  Caching 1-el integrals 

            General Information
            -------------------
          SCF calculation type: DFT
          Wavefunction type:  closed shell.
          No. of atoms     :     4
          No. of electrons :    40
           Alpha electrons :    20
            Beta electrons :    20
          Charge           :     0
          Spin multiplicity:     1
          Use of symmetry is: off; symmetry adaption is: off
          Maximum number of iterations: 100
          AO basis - number of functions:   224
                     number of shells:    58
          Convergence on energy requested:  1.00D-06
          Convergence on density requested:  1.00D-05
          Convergence on gradient requested:  5.00D-04

              XC Information
              --------------
          PerdewBurkeErnzerhof Exchange Functional  1.000          
            Perdew 1991 LDA Correlation Functional  1.000 local    
           PerdewBurkeErnz. Correlation Functional  1.000 non-local

             Grid Information
             ----------------
          Grid used for XC integration:  medium    
          Radial quadrature: Mura-Knowles        
          Angular quadrature: Lebedev. 
          Tag              B.-S. Rad. Rad. Pts. Rad. Cut. Ang. Pts.
          ---              ---------- --------- --------- ---------
          S                   1.00       88          10.0       590
          O                   0.60       49          11.0       434
          Grid pruning is: on 
          Number of quadrature shells:   235
          Spatial weights used:  Erf1

          Convergence Information
          -----------------------
          Convergence aids based upon iterative change in 
          total energy or number of iterations. 
          Levelshifting, if invoked, occurs when the 
          HOMO/LUMO gap drops below (HL_TOL):  1.00D-02
          DIIS, if invoked, will attempt to extrapolate 
          using up to (NFOCK): 10 stored Fock matrices.

                    Damping(40%)  Levelshifting(0.0)       DIIS
                  --------------- ------------------- ---------------
          dE  on:    start            0.00D+00            start   
          dE off:  100 iters          0.00D+00          100 iters 


      Screening Tolerance Information
      -------------------------------
          Density screening/tol_rho:  1.00D-10
          AO Gaussian exp screening on grid/accAOfunc:  14
          CD Gaussian exp screening on grid/accCDfunc:  20
          XC Gaussian exp screening on grid/accXCfunc:  20
          Schwarz screening/accCoul:  1.00D-08


 Forcing the number of linearly dependent vectors to be  0

      Superposition of Atomic Density Guess
      -------------------------------------

 Sum of atomic energies:        -621.83087188
   Time after variat. SCF:      0.4
   Time prior to 1st pass:      0.4

 Grid_pts file          = /jet/home/hmt47/nwchem_scratch//dft.gridpts.00
 Record size in doubles =  12289        No. of grid_pts per rec  =   3070
 Max. records in memory =      5        Max. recs in file   =  67550051


           Memory utilization after 1st SCF pass: 
           Heap Space remaining (MW):       33.49            33487244
          Stack Space remaining (MW):       67.11            67107652

   convergence    iter        energy       DeltaE   RMS-Dens  Diis-err    time
 ---------------- ----- ----------------- --------- --------- ---------  ------
 d=40,ls=0.0,diis     1   -624.0608651081 -7.94D+02  1.20D-02  3.11D+01     0.8
 d=40,ls=0.0,diis     2   -623.6054276872  4.55D-01  1.21D-02  5.81D+00     2.0
 d=40,ls=0.0,diis     3   -622.5407218091  1.06D+00  5.63D-03  6.92D+00     3.3
 d=40,ls=0.0,diis     4   -623.2089095550 -6.68D-01  5.08D-03  1.52D+00     4.5
 d=40,ls=0.0,diis     5   -623.2761474605 -6.72D-02  4.66D-03  9.19D-01     5.8
 d=40,ls=0.0,diis     6   -623.4116356969 -1.35D-01  1.96D-03  1.86D-01     7.0
  Resetting Diis
 d=40,ls=0.0,diis     7   -623.4422842376 -3.06D-02  8.10D-04  2.65D-02     8.3
 d=40,ls=0.0,diis     8   -623.4497946937 -7.51D-03  7.47D-04  4.71D-03     9.6
 d=40,ls=0.0,diis     9   -623.4485890569  1.21D-03  5.07D-04  2.86D-02    11.4
 d=40,ls=0.0,diis    10   -623.4527329423 -4.14D-03  1.59D-04  8.37D-04    13.0
 d=40,ls=0.0,diis    11   -623.4532485525 -5.16D-04  1.46D-04  1.01D-03    14.2
 d=40,ls=0.0,diis    12   -623.4535238009 -2.75D-04  7.97D-05  6.01D-04    15.5
 d=40,ls=0.0,diis    13   -623.4536860969 -1.62D-04  2.05D-05  8.14D-05    16.7
 d=40,ls=0.0,diis    14   -623.4537386271 -5.25D-05  1.52D-05  1.79D-05    18.0
 d=40,ls=0.0,diis    15   -623.4537585782 -2.00D-05  3.46D-05  3.85D-06    19.2
 d=40,ls=0.0,diis    16   -623.4537660993 -7.52D-06  1.51D-05  1.27D-06    20.5
 d=40,ls=0.0,diis    17   -623.4537693280 -3.23D-06  6.01D-06  2.29D-07    22.4
 d=40,ls=0.0,diis    18   -623.4537705660 -1.24D-06  2.37D-06  3.69D-08    23.7
 d=40,ls=0.0,diis    19   -623.4537710516 -4.86D-07  9.48D-07  6.10D-09    25.0


         Total DFT energy =     -623.453771051590
      One electron energy =    -1195.655483701305
           Coulomb energy =      453.341260553627
    Exchange-Corr. energy =      -50.841821399906
 Nuclear repulsion energy =      169.702273495994

 Numeric. integr. density =       40.000002349473

     Total iterative time =     24.8s



                       DFT Final Molecular Orbital Analysis
                       ------------------------------------

 Vector    1  Occ=2.000000D+00  E=-8.833649D+01
              MO Center= -5.8D-03,  3.6D-03, -6.1D-02, r^2= 3.6D-03
   Bfn.  Coefficient  Atom+Function         Bfn.  Coefficient  Atom+Function  
  ----- ------------  ---------------      ----- ------------  ---------------
     1      1.002480  1 S  s                  5     -0.033853  1 S  s          

 Vector    2  Occ=2.000000D+00  E=-1.884258D+01
              MO Center= -6.8D-01,  6.1D-02,  2.0D-01, r^2= 1.9D+00
   Bfn.  Coefficient  Atom+Function         Bfn.  Coefficient  Atom+Function  
  ----- ------------  ---------------      ----- ------------  ---------------
   115      0.709221  3 O  s                 60      0.535382  2 O  s          
   170      0.407052  4 O  s                117      0.045030  3 O  s          
   118     -0.045042  3 O  s                 63     -0.036001  2 O  s          
    62      0.034084  2 O  s                173     -0.029318  4 O  s          
     6      0.027492  1 S  s                  5      0.026477  1 S  s          

 Vector    3  Occ=2.000000D+00  E=-1.884257D+01
              MO Center= -6.9D-01,  5.3D-01,  3.3D-02, r^2= 1.7D+00
   Bfn.  Coefficient  Atom+Function         Bfn.  Coefficient  Atom+Function  
  ----- ------------  ---------------      ----- ------------  ---------------
    60      0.708319  2 O  s                115     -0.644719  3 O  s          
   170      0.192096  4 O  s                 62      0.044660  2 O  s          
   117     -0.040540  3 O  s                 63     -0.038151  2 O  s          
   118      0.032305  3 O  s          

 Vector    4  Occ=2.000000D+00  E=-1.884257D+01
              MO Center=  5.1D-01, -9.5D-02,  9.7D-01, r^2= 1.1D+00
   Bfn.  Coefficient  Atom+Function         Bfn.  Coefficient  Atom+Function  
  ----- ------------  ---------------      ----- ------------  ---------------
   170      0.867200  4 O  s                 60     -0.407772  2 O  s          
   115     -0.189655  3 O  s                172      0.054668  4 O  s          
   173     -0.046492  4 O  s                 62     -0.025617  2 O  s          

 Vector    5  Occ=2.000000D+00  E=-7.918684D+00
              MO Center= -5.8D-03,  3.6D-03, -6.0D-02, r^2= 7.7D-02
   Bfn.  Coefficient  Atom+Function         Bfn.  Coefficient  Atom+Function  
  ----- ------------  ---------------      ----- ------------  ---------------
     2      0.904015  1 S  s                  4      0.109704  1 S  s          
     3     -0.039616  1 S  s          

 Vector    6  Occ=2.000000D+00  E=-5.940424D+00
              MO Center= -5.7D-03,  3.5D-03, -6.1D-02, r^2= 6.9D-02
   Bfn.  Coefficient  Atom+Function         Bfn.  Coefficient  Atom+Function  
  ----- ------------  ---------------      ----- ------------  ---------------
     9      0.853974  1 S  pz                 7     -0.516328  1 S  px         
     8      0.297596  1 S  py                12      0.132771  1 S  pz         
    10     -0.080284  1 S  px                 5      0.075571  1 S  s          
    42     -0.051977  1 S  fxxz              47     -0.052215  1 S  fyyz       
    49     -0.052044  1 S  fzzz              11      0.046260  1 S  py         

 Vector    7  Occ=2.000000D+00  E=-5.939344D+00
              MO Center= -5.8D-03,  3.6D-03, -6.1D-02, r^2= 6.9D-02
   Bfn.  Coefficient  Atom+Function         Bfn.  Coefficient  Atom+Function  
  ----- ------------  ---------------      ----- ------------  ---------------
     8      1.001093  1 S  py                 7      0.373541  1 S  px         
    11      0.219111  1 S  py                 9     -0.123025  1 S  pz         
    48     -0.082335  1 S  fyzz              10      0.081714  1 S  px         
    41     -0.077477  1 S  fxxy              46     -0.076359  1 S  fyyy       
    63     -0.056878  2 O  s                118      0.044614  3 O  s          

 Vector    8  Occ=2.000000D+00  E=-5.939344D+00
              MO Center= -5.8D-03,  3.6D-03, -6.1D-02, r^2= 6.9D-02
   Bfn.  Coefficient  Atom+Function         Bfn.  Coefficient  Atom+Function  
  ----- ------------  ---------------      ----- ------------  ---------------
     7      0.856098  1 S  px                 9      0.603121  1 S  pz         
     8     -0.245379  1 S  py                10      0.187358  1 S  px         
    12      0.132014  1 S  pz                43     -0.067711  1 S  fxyy       
    40     -0.066851  1 S  fxxx              45     -0.064298  1 S  fxzz       
   173     -0.058698  4 O  s                 11     -0.053756  1 S  py         

 Vector    9  Occ=2.000000D+00  E=-1.061359D+00
              MO Center= -1.9D-01,  1.1D-01,  2.4D-01, r^2= 1.5D+00
   Bfn.  Coefficient  Atom+Function         Bfn.  Coefficient  Atom+Function  
  ----- ------------  ---------------      ----- ------------  ---------------
     3      0.356207  1 S  s                 61      0.215469  2 O  s          
   116      0.214985  3 O  s                171      0.215477  4 O  s          
    63      0.162582  2 O  s                118      0.162217  3 O  s          
   173      0.162593  4 O  s                 62      0.062025  2 O  s          
   117      0.061897  3 O  s                172      0.062026  4 O  s          

 Vector   10  Occ=2.000000D+00  E=-9.461601D-01
              MO Center=  2.3D-01,  4.6D-01,  4.8D-01, r^2= 1.7D+00
   Bfn.  Coefficient  Atom+Function         Bfn.  Coefficient  Atom+Function  
  ----- ------------  ---------------      ----- ------------  ---------------
    61      0.344965  2 O  s                171     -0.342928  4 O  s          
    63      0.248830  2 O  s                173     -0.247366  4 O  s          
    14      0.108372  1 S  py                62      0.096790  2 O  s          
   172     -0.096217  4 O  s                  8     -0.081791  1 S  py         
    15     -0.067600  1 S  pz                69     -0.058857  2 O  py         

 Vector   11  Occ=2.000000D+00  E=-9.460706D-01
              MO Center= -6.9D-01, -1.9D-01,  1.4D-01, r^2= 1.7D+00
   Bfn.  Coefficient  Atom+Function         Bfn.  Coefficient  Atom+Function  
  ----- ------------  ---------------      ----- ------------  ---------------
   116      0.397379  3 O  s                118      0.286677  3 O  s          
   171     -0.200136  4 O  s                 61     -0.196614  2 O  s          
   173     -0.144361  4 O  s                 63     -0.141817  2 O  s          
   117      0.111509  3 O  s                 13     -0.108223  1 S  px         
     7      0.081680  1 S  px                14     -0.073893  1 S  py         

 Vector   12  Occ=2.000000D+00  E=-6.254923D-01
              MO Center= -1.2D-01,  7.2D-02,  1.3D-01, r^2= 2.4D+00
   Bfn.  Coefficient  Atom+Function         Bfn.  Coefficient  Atom+Function  
  ----- ------------  ---------------      ----- ------------  ---------------
     3      0.473252  1 S  s                  5      0.314435  1 S  s          
    61     -0.212581  2 O  s                 63     -0.213110  2 O  s          
   116     -0.212536  3 O  s                118     -0.213076  3 O  s          
   171     -0.212579  4 O  s                173     -0.213113  4 O  s          
     6      0.113172  1 S  s                 66     -0.076363  2 O  py         

 Vector   13  Occ=2.000000D+00  E=-4.747196D-01
              MO Center= -6.3D-01, -8.6D-02,  1.8D-01, r^2= 2.4D+00
   Bfn.  Coefficient  Atom+Function         Bfn.  Coefficient  Atom+Function  
  ----- ------------  ---------------      ----- ------------  ---------------
   120      0.205731  3 O  px               123      0.202364  3 O  px         
    13     -0.185614  1 S  px               116     -0.179854  3 O  s          
   118     -0.179080  3 O  s                 14     -0.137639  1 S  py         
   126      0.112055  3 O  px                 7      0.108941  1 S  px         
    66      0.107591  2 O  py                69      0.105502  2 O  py         

 Vector   14  Occ=2.000000D+00  E=-4.747081D-01
              MO Center=  1.4D-01,  3.7D-01,  4.9D-01, r^2= 2.4D+00
   Bfn.  Coefficient  Atom+Function         Bfn.  Coefficient  Atom+Function  
  ----- ------------  ---------------      ----- ------------  ---------------
    14      0.183598  1 S  py                66     -0.183265  2 O  py         
    69     -0.179979  2 O  py               177      0.177349  4 O  pz         
   180      0.174904  4 O  pz               171      0.159261  4 O  s          
   173      0.158584  4 O  s                 61     -0.152079  2 O  s          
    63     -0.151417  2 O  s                 15     -0.121240  1 S  pz         

 Vector   15  Occ=2.000000D+00  E=-4.722754D-01
              MO Center= -1.1D-01,  6.4D-02,  1.1D-01, r^2= 2.1D+00
   Bfn.  Coefficient  Atom+Function         Bfn.  Coefficient  Atom+Function  
  ----- ------------  ---------------      ----- ------------  ---------------
    15      0.212250  1 S  pz                 5     -0.176884  1 S  s          
    12      0.133863  1 S  pz                13     -0.127583  1 S  px         
   175     -0.123243  4 O  px               178     -0.123003  4 O  px         
     9     -0.110676  1 S  pz                67      0.100917  2 O  pz         
    70      0.101049  2 O  pz               122      0.100847  3 O  pz         

 Vector   16  Occ=2.000000D+00  E=-3.582272D-01
              MO Center= -8.9D-02,  2.8D-01,  4.6D-01, r^2= 2.5D+00
   Bfn.  Coefficient  Atom+Function         Bfn.  Coefficient  Atom+Function  
  ----- ------------  ---------------      ----- ------------  ---------------
   179      0.202222  4 O  py               176      0.200152  4 O  py         
    70      0.174898  2 O  pz                67      0.173408  2 O  pz         
   125     -0.142792  3 O  pz               122     -0.140913  3 O  pz         
    65      0.132826  2 O  px                68      0.133425  2 O  px         
   182      0.124459  4 O  py               120      0.114421  3 O  px         

 Vector   17  Occ=2.000000D+00  E=-3.581937D-01
              MO Center= -4.6D-01,  4.1D-02,  3.2D-01, r^2= 2.5D+00
   Bfn.  Coefficient  Atom+Function         Bfn.  Coefficient  Atom+Function  
  ----- ------------  ---------------      ----- ------------  ---------------
   124     -0.190809  3 O  py               121     -0.189773  3 O  py         
    68      0.182892  2 O  px                65      0.181809  2 O  px         
   177      0.146761  4 O  pz               180      0.144288  4 O  pz         
   178     -0.119434  4 O  px               122      0.115951  3 O  pz         
   125      0.116526  3 O  pz               175     -0.115572  4 O  px         

 Vector   18  Occ=2.000000D+00  E=-3.244462D-01
              MO Center=  1.2D-01,  4.1D-01,  4.4D-01, r^2= 2.5D+00
   Bfn.  Coefficient  Atom+Function         Bfn.  Coefficient  Atom+Function  
  ----- ------------  ---------------      ----- ------------  ---------------
    70      0.232927  2 O  pz                67      0.229765  2 O  pz         
   175      0.180311  4 O  px               178      0.180957  4 O  px         
   176     -0.179699  4 O  py               179     -0.180386  4 O  py         
    73      0.172176  2 O  pz                66     -0.122519  2 O  py         
    69     -0.119438  2 O  py               182     -0.116552  4 O  py         

 Vector   19  Occ=2.000000D+00  E=-3.244270D-01
              MO Center= -5.9D-01, -1.4D-01,  2.0D-01, r^2= 2.5D+00
   Bfn.  Coefficient  Atom+Function         Bfn.  Coefficient  Atom+Function  
  ----- ------------  ---------------      ----- ------------  ---------------
   125      0.233503  3 O  pz               122      0.230055  3 O  pz         
   175      0.185305  4 O  px               178      0.186015  4 O  px         
   128      0.171100  3 O  pz               121      0.170093  3 O  py         
   124      0.170333  3 O  py                68      0.150400  2 O  px         
    65      0.148939  2 O  px                71      0.118497  2 O  px         

 Vector   20  Occ=2.000000D+00  E=-2.910376D-01
              MO Center= -2.8D-01,  1.6D-01,  3.9D-01, r^2= 2.7D+00
   Bfn.  Coefficient  Atom+Function         Bfn.  Coefficient  Atom+Function  
  ----- ------------  ---------------      ----- ------------  ---------------
    68      0.208744  2 O  px               179     -0.208807  4 O  py         
    65      0.205129  2 O  px               176     -0.205195  4 O  py         
   124      0.190425  3 O  py               121      0.187134  3 O  py         
    71      0.156838  2 O  px               182     -0.156877  4 O  py         
   127      0.143052  3 O  py               178     -0.120844  4 O  px         

 Vector   21  Occ=0.000000D+00  E=-2.892933D-01
              MO Center= -1.4D-01,  8.2D-02,  1.6D-01, r^2= 2.6D+00
   Bfn.  Coefficient  Atom+Function         Bfn.  Coefficient  Atom+Function  
  ----- ------------  ---------------      ----- ------------  ---------------
     5      0.265434  1 S  s                180      0.192437  4 O  pz         
   177      0.190216  4 O  pz                 3      0.188779  1 S  s          
    70      0.152389  2 O  pz               125      0.152418  3 O  pz         
    67      0.149417  2 O  pz               122      0.149447  3 O  pz         
   123     -0.136949  3 O  px                15     -0.135642  1 S  pz         

 Vector   22  Occ=0.000000D+00  E=-4.644072D-02
              MO Center=  1.0D-01, -7.9D-03, -1.7D-01, r^2= 3.0D+00
   Bfn.  Coefficient  Atom+Function         Bfn.  Coefficient  Atom+Function  
  ----- ------------  ---------------      ----- ------------  ---------------
    19      0.369449  1 S  px                20      0.213647  1 S  py         
    16      0.199468  1 S  px                34      0.194231  1 S  dxx        
    10      0.190638  1 S  px                13      0.190967  1 S  px         
    22      0.180609  1 S  dxx               36     -0.179823  1 S  dxz        
    23      0.177253  1 S  dxy               35      0.173785  1 S  dxy        

 Vector   23  Occ=0.000000D+00  E=-4.642067D-02
              MO Center=  3.4D-02, -7.0D-02, -1.9D-01, r^2= 3.0D+00
   Bfn.  Coefficient  Atom+Function         Bfn.  Coefficient  Atom+Function  
  ----- ------------  ---------------      ----- ------------  ---------------
    20      0.376469  1 S  py                21     -0.211668  1 S  pz         
    17      0.203171  1 S  py                11      0.193976  1 S  py         
    14      0.194380  1 S  py                37     -0.186846  1 S  dyy        
    25     -0.180354  1 S  dyy               38     -0.173697  1 S  dyz        
    39      0.167283  1 S  dzz               26     -0.153442  1 S  dyz        

 Vector   24  Occ=0.000000D+00  E=-6.476443D-03
              MO Center= -1.4D-01,  8.2D-02,  1.6D-01, r^2= 8.1D+00
   Bfn.  Coefficient  Atom+Function         Bfn.  Coefficient  Atom+Function  
  ----- ------------  ---------------      ----- ------------  ---------------
     6      4.219504  1 S  s                 64     -1.286734  2 O  s          
   119     -1.285509  3 O  s                174     -1.286763  4 O  s          
    18      0.944266  1 S  pz                 5      0.911462  1 S  s          
    16     -0.569264  1 S  px                75      0.473719  2 O  py         
   129     -0.419625  3 O  px               186      0.354829  4 O  pz         

 Vector   25  Occ=0.000000D+00  E= 1.491091D-03
              MO Center=  5.8D-01, -3.4D-01, -1.0D+00, r^2= 6.3D+00
   Bfn.  Coefficient  Atom+Function         Bfn.  Coefficient  Atom+Function  
  ----- ------------  ---------------      ----- ------------  ---------------
     6      1.554780  1 S  s                 21     -0.788448  1 S  pz         
    19      0.474382  1 S  px                 3     -0.380557  1 S  s          
    20     -0.275814  1 S  py                39     -0.264492  1 S  dzz        
    34     -0.242148  1 S  dxx               37     -0.233456  1 S  dyy        
     5     -0.230218  1 S  s                 76      0.161611  2 O  pz         

 Vector   26  Occ=0.000000D+00  E= 3.736949D-02
              MO Center=  1.3D-01, -1.4D-02, -2.0D-01, r^2= 1.4D+01
   Bfn.  Coefficient  Atom+Function         Bfn.  Coefficient  Atom+Function  
  ----- ------------  ---------------      ----- ------------  ---------------
   119      2.515751  3 O  s                 19      1.562327  1 S  px         
   174     -1.264621  4 O  s                 64     -1.168803  2 O  s          
    16      1.101952  1 S  px                20      1.020729  1 S  py         
    17      0.722710  1 S  py                21      0.563810  1 S  pz         
    35     -0.489199  1 S  dxy              129      0.479820  3 O  px         

 Vector   27  Occ=0.000000D+00  E= 3.737888D-02
              MO Center=  2.7D-02, -9.4D-02, -2.3D-01, r^2= 1.4D+01
   Bfn.  Coefficient  Atom+Function         Bfn.  Coefficient  Atom+Function  
  ----- ------------  ---------------      ----- ------------  ---------------
    64      2.184091  2 O  s                174     -2.127739  4 O  s          
    20     -1.560859  1 S  py                17     -1.103545  1 S  py         
    21      0.952411  1 S  pz                18      0.673447  1 S  pz         
    19      0.676052  1 S  px                16      0.477923  1 S  px         
    37     -0.453924  1 S  dyy               75     -0.452939  2 O  py         

 Vector   28  Occ=0.000000D+00  E= 3.899959D-02
              MO Center= -7.1D-01,  4.3D-01,  1.1D+00, r^2= 9.0D+00
   Bfn.  Coefficient  Atom+Function         Bfn.  Coefficient  Atom+Function  
  ----- ------------  ---------------      ----- ------------  ---------------
     6      4.769507  1 S  s                 64     -2.276632  2 O  s          
   174     -2.278834  4 O  s                119     -2.230145  3 O  s          
    21      1.223040  1 S  pz                19     -0.714922  1 S  px         
    18      0.560822  1 S  pz                75      0.451597  2 O  py         
    20      0.436400  1 S  py               129     -0.390342  3 O  px         

 Vector   29  Occ=0.000000D+00  E= 9.050843D-02
              MO Center= -1.0D+00, -3.2D-01,  1.9D-01, r^2= 1.3D+01
   Bfn.  Coefficient  Atom+Function         Bfn.  Coefficient  Atom+Function  
  ----- ------------  ---------------      ----- ------------  ---------------
    16      3.359323  1 S  px               119      2.930233  3 O  s          
    17      2.296063  1 S  py               129      2.166377  3 O  px         
   174     -1.478164  4 O  s                 64     -1.453515  2 O  s          
    18      1.227010  1 S  pz                75      1.167365  2 O  py         
   186      1.001148  4 O  pz               130      0.930168  3 O  py         

 Vector   30  Occ=0.000000D+00  E= 9.051375D-02
              MO Center=  4.0D-01,  6.8D-01,  7.0D-01, r^2= 1.3D+01
   Bfn.  Coefficient  Atom+Function         Bfn.  Coefficient  Atom+Function  
  ----- ------------  ---------------      ----- ------------  ---------------
    17      3.363919  1 S  py                64     -2.546772  2 O  s          
   174      2.532574  4 O  s                 18     -2.099094  1 S  pz         
    75      2.031526  2 O  py               186     -1.714741  4 O  pz         
    16     -1.532524  1 S  px               184     -0.934012  4 O  px         
    51     -0.759062  1 S  fxxy              58     -0.735407  1 S  fyzz       

 Vector   31  Occ=0.000000D+00  E= 1.038257D-01
              MO Center= -2.8D-01,  1.2D-01,  3.7D-01, r^2= 1.2D+01
   Bfn.  Coefficient  Atom+Function         Bfn.  Coefficient  Atom+Function  
  ----- ------------  ---------------      ----- ------------  ---------------
    17      1.162004  1 S  py                38      0.928744  1 S  dyz        
   130     -0.894357  3 O  py                20      0.832963  1 S  py         
   131      0.819796  3 O  pz               184     -0.800290  4 O  px         
    35     -0.778177  1 S  dxy               74      0.713475  2 O  px         
   185     -0.601038  4 O  py                76     -0.585029  2 O  pz         

 Vector   32  Occ=0.000000D+00  E= 1.038262D-01
              MO Center= -2.5D-01,  1.9D-01,  3.7D-01, r^2= 1.2D+01
   Bfn.  Coefficient  Atom+Function         Bfn.  Coefficient  Atom+Function  
  ----- ------------  ---------------      ----- ------------  ---------------
    16      1.101488  1 S  px               185     -0.974456  4 O  py         
    74     -0.965550  2 O  px                38      0.920459  1 S  dyz        
    35      0.864022  1 S  dxy               76     -0.802116  2 O  pz         
    19      0.788326  1 S  px               131      0.561124  3 O  pz         
   130      0.554333  3 O  py                18      0.522919  1 S  pz         

 Vector   33  Occ=0.000000D+00  E= 1.057669D-01
              MO Center= -3.7D-01,  2.2D-01,  5.4D-01, r^2= 1.1D+01
   Bfn.  Coefficient  Atom+Function         Bfn.  Coefficient  Atom+Function  
  ----- ------------  ---------------      ----- ------------  ---------------
     5      2.594684  1 S  s                 18      2.174558  1 S  pz         
    16     -1.311034  1 S  px                64     -1.258405  2 O  s          
   119     -1.258322  3 O  s                174     -1.258365  4 O  s          
    37      1.007013  1 S  dyy               75      0.987267  2 O  py         
    34      0.961437  1 S  dxx              184      0.918785  4 O  px         

 Vector   34  Occ=0.000000D+00  E= 1.334659D-01
              MO Center=  2.1D-01, -1.2D-01, -4.1D-01, r^2= 1.4D+01
   Bfn.  Coefficient  Atom+Function         Bfn.  Coefficient  Atom+Function  
  ----- ------------  ---------------      ----- ------------  ---------------
     5      6.188953  1 S  s                 64     -2.686902  2 O  s          
   119     -2.685356  3 O  s                174     -2.686912  4 O  s          
   186      2.096986  4 O  pz                37      1.830205  1 S  dyy        
   129     -1.811566  3 O  px                21     -1.764434  1 S  pz         
    34      1.678745  1 S  dxx               75      1.662158  2 O  py         

 Vector   35  Occ=0.000000D+00  E= 1.678868D-01
              MO Center= -2.8D-01,  1.6D-01,  3.9D-01, r^2= 1.3D+01
   Bfn.  Coefficient  Atom+Function         Bfn.  Coefficient  Atom+Function  
  ----- ------------  ---------------      ----- ------------  ---------------
    74      1.515871  2 O  px               185     -1.515889  4 O  py         
   130      1.381619  3 O  py               184     -0.877889  4 O  px         
    76      0.867458  2 O  pz               131     -0.867424  3 O  pz         
   129     -0.638175  3 O  px                71     -0.285693  2 O  px         
   182      0.285789  4 O  py               127     -0.260713  3 O  py         

 Vector   36  Occ=0.000000D+00  E= 1.724777D-01
              MO Center=  1.9D-01, -1.1D-01, -3.9D-01, r^2= 1.1D+01
   Bfn.  Coefficient  Atom+Function         Bfn.  Coefficient  Atom+Function  
  ----- ------------  ---------------      ----- ------------  ---------------
    64      4.427969  2 O  s                119      4.425861  3 O  s          
   174      4.428283  4 O  s                  6     -3.450059  1 S  s          
    39     -2.451415  1 S  dzz               34     -1.919507  1 S  dxx        
    21     -1.869720  1 S  pz                37     -1.717702  1 S  dyy        
     5      1.344970  1 S  s                 18     -1.349059  1 S  pz         

 Vector   37  Occ=0.000000D+00  E= 1.766802D-01
              MO Center= -2.7D-01,  2.4D-02,  1.7D-01, r^2= 1.4D+01
   Bfn.  Coefficient  Atom+Function         Bfn.  Coefficient  Atom+Function  
  ----- ------------  ---------------      ----- ------------  ---------------
    19      2.782027  1 S  px                20      1.894415  1 S  py         
    74     -1.888782  2 O  px               184     -1.842838  4 O  px         
   131     -1.746321  3 O  pz               130     -1.378492  3 O  py         
   119      1.152940  3 O  s                 16      1.109514  1 S  px         
    21      1.017998  1 S  pz               185     -0.856642  4 O  py         

 Vector   38  Occ=0.000000D+00  E= 1.766825D-01
              MO Center= -6.4D-02,  1.7D-01,  2.4D-01, r^2= 1.4D+01
   Bfn.  Coefficient  Atom+Function         Bfn.  Coefficient  Atom+Function  
  ----- ------------  ---------------      ----- ------------  ---------------
    20      2.786035  1 S  py                76      1.984989  2 O  pz         
   185     -1.841465  4 O  py                21     -1.734328  1 S  pz         
   130     -1.530537  3 O  py                19     -1.262520  1 S  px         
   184      1.232300  4 O  px                17      1.111232  1 S  py         
    75     -1.012276  2 O  py                64     -1.002608  2 O  s          

 Vector   39  Occ=0.000000D+00  E= 2.067995D-01
              MO Center= -6.0D-01, -2.5D-01, -9.8D-02, r^2= 1.0D+01
   Bfn.  Coefficient  Atom+Function         Bfn.  Coefficient  Atom+Function  
  ----- ------------  ---------------      ----- ------------  ---------------
   119      7.422863  3 O  s                 64     -3.887934  2 O  s          
   174     -3.531828  4 O  s                 16      2.483714  1 S  px         
    17      1.805228  1 S  py               129      1.676410  3 O  px         
    38      1.239185  1 S  dyz              130      1.141321  3 O  py         
    36      1.094846  1 S  dxz               75      1.070729  2 O  py         

 Vector   40  Occ=0.000000D+00  E= 2.068105D-01
              MO Center=  4.0D-01,  3.7D-01,  2.9D-01, r^2= 1.0D+01
   Bfn.  Coefficient  Atom+Function         Bfn.  Coefficient  Atom+Function  
  ----- ------------  ---------------      ----- ------------  ---------------
   174     -6.531557  4 O  s                 64      6.326457  2 O  s          
    17     -2.468969  1 S  py                75     -1.716419  2 O  py         
    18      1.605517  1 S  pz               184      1.261880  4 O  px         
    16      1.232259  1 S  px                35      1.121575  1 S  dxy        
   186      1.083275  4 O  pz                38     -1.062898  1 S  dyz        

 Vector   41  Occ=0.000000D+00  E= 2.254802D-01
              MO Center= -5.4D-01,  3.1D-01,  8.3D-01, r^2= 1.1D+01
   Bfn.  Coefficient  Atom+Function         Bfn.  Coefficient  Atom+Function  
  ----- ------------  ---------------      ----- ------------  ---------------
     6     14.375380  1 S  s                 64     -5.412502  2 O  s          
   119     -5.407010  3 O  s                174     -5.412903  4 O  s          
    39     -1.815092  1 S  dzz               21      1.636558  1 S  pz         
    18      1.547643  1 S  pz                34     -1.359680  1 S  dxx        
    37     -1.188338  1 S  dyy                5     -1.037275  1 S  s          

 Vector   42  Occ=0.000000D+00  E= 2.452683D-01
              MO Center=  6.2D-02,  3.1D-02, -8.4D-02, r^2= 8.5D+00
   Bfn.  Coefficient  Atom+Function         Bfn.  Coefficient  Atom+Function  
  ----- ------------  ---------------      ----- ------------  ---------------
   119      3.406225  3 O  s                118     -2.547323  3 O  s          
    16      2.527851  1 S  px               129      2.091160  3 O  px         
    50     -1.947883  1 S  fxxx             174     -1.915419  4 O  s          
    55     -1.853981  1 S  fxzz              53     -1.710932  1 S  fxyy       
    34      1.619606  1 S  dxx               17      1.508120  1 S  py         

 Vector   43  Occ=0.000000D+00  E= 2.452851D-01
              MO Center= -2.8D-02, -4.9D-02, -1.1D-01, r^2= 8.5D+00
   Bfn.  Coefficient  Atom+Function         Bfn.  Coefficient  Atom+Function  
  ----- ------------  ---------------      ----- ------------  ---------------
    64      3.077882  2 O  s                174     -2.831348  4 O  s          
    17     -2.568813  1 S  py                63     -2.298609  2 O  s          
   173      2.113603  4 O  s                 75     -2.018660  2 O  py         
    56      1.982375  1 S  fyyy              58      1.853562  1 S  fyzz       
    51      1.756101  1 S  fxxy             186      1.578868  4 O  pz         

 Vector   44  Occ=0.000000D+00  E= 2.631184D-01
              MO Center= -2.1D-01, -1.3D-01, -1.3D-01, r^2= 7.1D+00
   Bfn.  Coefficient  Atom+Function         Bfn.  Coefficient  Atom+Function  
  ----- ------------  ---------------      ----- ------------  ---------------
   174     -4.846976  4 O  s                 64      4.797427  2 O  s          
    17     -3.019866  1 S  py                36      2.748595  1 S  dxz        
    37     -2.450730  1 S  dyy               35     -2.154641  1 S  dxy        
    18      1.915545  1 S  pz                34      1.492110  1 S  dxx        
    16      1.430416  1 S  px                75     -1.428754  2 O  py         

 Vector   45  Occ=0.000000D+00  E= 2.631329D-01
              MO Center=  1.9D-01,  1.4D-01,  2.2D-02, r^2= 7.1D+00
   Bfn.  Coefficient  Atom+Function         Bfn.  Coefficient  Atom+Function  
  ----- ------------  ---------------      ----- ------------  ---------------
   119      5.567884  3 O  s                 35     -3.944665  1 S  dxy        
    16      3.023691  1 S  px                64     -2.828892  2 O  s          
    38     -2.779032  1 S  dyz              174     -2.744004  4 O  s          
    17      2.126230  1 S  py               118      1.635428  3 O  s          
    34     -1.531452  1 S  dxx              129      1.524067  3 O  px         

 Vector   46  Occ=0.000000D+00  E= 2.668884D-01
              MO Center= -4.7D-02,  2.6D-02,  6.1D-03, r^2= 8.2D+00
   Bfn.  Coefficient  Atom+Function         Bfn.  Coefficient  Atom+Function  
  ----- ------------  ---------------      ----- ------------  ---------------
     6     -5.088193  1 S  s                  5      4.788358  1 S  s          
    18     -3.646874  1 S  pz                37      3.127255  1 S  dyy        
    34      2.754056  1 S  dxx               16      2.206999  1 S  px         
    52      1.895039  1 S  fxxz              59      1.852888  1 S  fzzz       
    36      1.825863  1 S  dxz               39      1.796435  1 S  dzz        

 Vector   47  Occ=0.000000D+00  E= 3.485624D-01
              MO Center= -4.3D-01,  2.5D-01,  6.4D-01, r^2= 1.1D+01
   Bfn.  Coefficient  Atom+Function         Bfn.  Coefficient  Atom+Function  
  ----- ------------  ---------------      ----- ------------  ---------------
     5     12.200925  1 S  s                 64     -8.814114  2 O  s          
   119     -8.809130  3 O  s                174     -8.813404  4 O  s          
    18      8.072135  1 S  pz                37      6.021935  1 S  dyy        
    34      5.637633  1 S  dxx               16     -4.867454  1 S  px         
    39      4.632235  1 S  dzz                6      4.383913  1 S  s          

 Vector   48  Occ=0.000000D+00  E= 3.761593D-01
              MO Center= -3.3D-02,  3.6D-01,  6.0D-01, r^2= 9.2D+00
   Bfn.  Coefficient  Atom+Function         Bfn.  Coefficient  Atom+Function  
  ----- ------------  ---------------      ----- ------------  ---------------
    17     12.600724  1 S  py                18     -8.416339  1 S  pz         
   174      8.309978  4 O  s                 64     -7.855257  2 O  s          
    16     -6.656917  1 S  px                51     -2.767270  1 S  fxxy       
    58     -2.680632  1 S  fyzz              56     -2.628492  1 S  fyyy       
    37      2.466072  1 S  dyy               75      2.467092  2 O  py         

 Vector   49  Occ=0.000000D+00  E= 3.761743D-01
              MO Center= -6.3D-01,  2.3D-02,  3.6D-01, r^2= 9.2D+00
   Bfn.  Coefficient  Atom+Function         Bfn.  Coefficient  Atom+Function  
  ----- ------------  ---------------      ----- ------------  ---------------
    16     12.744434  1 S  px                17      9.626508  1 S  py         
   119      9.327011  3 O  s                 64     -5.057693  2 O  s          
    18      4.331658  1 S  pz               174     -4.271314  4 O  s          
    53     -2.809271  1 S  fxyy              35     -2.754540  1 S  dxy        
    55     -2.721663  1 S  fxzz              50     -2.648749  1 S  fxxx       

 Vector   50  Occ=0.000000D+00  E= 4.103302D-01
              MO Center= -4.9D-02, -4.8D-02, -1.5D-01, r^2= 7.2D+00
   Bfn.  Coefficient  Atom+Function         Bfn.  Coefficient  Atom+Function  
  ----- ------------  ---------------      ----- ------------  ---------------
    38      4.833477  1 S  dyz               36      2.841126  1 S  dxz        
    58      2.119231  1 S  fyzz             182     -1.960444  4 O  py         
    35      1.913109  1 S  dxy               55      1.424762  1 S  fxzz       
   126      1.383827  3 O  px                73     -1.361230  2 O  pz         
   118      1.365187  3 O  s                119     -1.337211  3 O  s          

 Vector   51  Occ=0.000000D+00  E= 4.103384D-01
              MO Center=  9.9D-02,  1.9D-02, -7.9D-02, r^2= 7.2D+00
   Bfn.  Coefficient  Atom+Function         Bfn.  Coefficient  Atom+Function  
  ----- ------------  ---------------      ----- ------------  ---------------
    35      4.197943  1 S  dxy               38     -2.253731  1 S  dyz        
    34     -2.022304  1 S  dxx              181      1.910257  4 O  px         
    51     -1.743206  1 S  fxxy             127      1.677091  3 O  py         
    39      1.632616  1 S  dzz               72     -1.514616  2 O  py         
    54      1.342567  1 S  fxyz              71     -1.322165  2 O  px         

 Vector   52  Occ=0.000000D+00  E= 4.407438D-01
              MO Center= -1.3D-01,  7.4D-02,  1.4D-01, r^2= 4.9D+00
   Bfn.  Coefficient  Atom+Function         Bfn.  Coefficient  Atom+Function  
  ----- ------------  ---------------      ----- ------------  ---------------
     5      9.177452  1 S  s                 63     -2.781395  2 O  s          
   118     -2.779143  3 O  s                173     -2.781557  4 O  s          
    18     -2.656433  1 S  pz                39     -2.533780  1 S  dzz        
   183      2.366426  4 O  pz                72      2.271092  2 O  py         
   126     -2.275292  3 O  px                64      1.861876  2 O  s          

 Vector   53  Occ=0.000000D+00  E= 4.919388D-01
              MO Center=  1.1D-01, -6.3D-02, -2.5D-01, r^2= 6.5D+00
   Bfn.  Coefficient  Atom+Function         Bfn.  Coefficient  Atom+Function  
  ----- ------------  ---------------      ----- ------------  ---------------
     5      8.100592  1 S  s                 36      2.802967  1 S  dxz        
    63     -2.487697  2 O  s                118     -2.487608  3 O  s          
   173     -2.487570  4 O  s                 18     -2.362180  1 S  pz         
    72      1.979386  2 O  py               126     -1.811596  3 O  px         
     6     -1.701517  1 S  s                 52      1.636635  1 S  fxxz       

 Vector   54  Occ=0.000000D+00  E= 5.213284D-01
              MO Center= -3.8D-02,  2.5D-01,  3.7D-01, r^2= 5.5D+00
   Bfn.  Coefficient  Atom+Function         Bfn.  Coefficient  Atom+Function  
  ----- ------------  ---------------      ----- ------------  ---------------
   118      3.342446  3 O  s                 16     -2.729716  1 S  px         
    50      2.539326  1 S  fxxx              51      2.293157  1 S  fxxy       
   119     -2.202905  3 O  s                 55      2.053233  1 S  fxzz       
    17     -1.926877  1 S  py                35     -1.789995  1 S  dxy        
    56      1.736144  1 S  fyyy              53      1.726886  1 S  fxyy       

 Vector   55  Occ=0.000000D+00  E= 5.214279D-01
              MO Center= -4.1D-01,  7.0D-03,  2.3D-01, r^2= 5.5D+00
   Bfn.  Coefficient  Atom+Function         Bfn.  Coefficient  Atom+Function  
  ----- ------------  ---------------      ----- ------------  ---------------
   173     -2.918151  4 O  s                 63      2.879114  2 O  s          
    17      2.720548  1 S  py                56     -2.573683  1 S  fyyy       
    58     -2.070917  1 S  fyzz             174      1.922868  4 O  s          
    55      1.899504  1 S  fxzz              64     -1.897049  2 O  s          
    72     -1.751166  2 O  py                18     -1.733512  1 S  pz         

 Vector   56  Occ=0.000000D+00  E= 5.816514D-01
              MO Center= -2.1D-01,  1.2D-01,  2.8D-01, r^2= 5.1D+00
   Bfn.  Coefficient  Atom+Function         Bfn.  Coefficient  Atom+Function  
  ----- ------------  ---------------      ----- ------------  ---------------
   203      1.134749  4 O  dyz              145      0.818196  3 O  dxy        
   148     -0.700948  3 O  dyz              201      0.657341  4 O  dxz        
    53     -0.601322  1 S  fxyy              90     -0.573375  2 O  dxy        
    71      0.568440  2 O  px               182     -0.568934  4 O  py         
    89      0.557268  2 O  dxx               91     -0.559145  2 O  dxz        

 Vector   57  Occ=0.000000D+00  E= 5.988843D-01
              MO Center= -8.1D-01, -8.0D-02,  2.6D-01, r^2= 5.2D+00
   Bfn.  Coefficient  Atom+Function         Bfn.  Coefficient  Atom+Function  
  ----- ------------  ---------------      ----- ------------  ---------------
   119      1.806411  3 O  s                 16      1.583600  1 S  px         
    17      1.216669  1 S  py               128      1.204079  3 O  pz         
    50     -1.093449  1 S  fxxx              64     -0.999791  2 O  s          
    51     -0.985268  1 S  fxxy              55     -0.918907  1 S  fxzz       
    73     -0.912519  2 O  pz               118     -0.875786  3 O  s          

 Vector   58  Occ=0.000000D+00  E= 5.989250D-01
              MO Center=  1.7D-01,  4.5D-01,  6.7D-01, r^2= 5.2D+00
   Bfn.  Coefficient  Atom+Function         Bfn.  Coefficient  Atom+Function  
  ----- ------------  ---------------      ----- ------------  ---------------
   174      1.619901  4 O  s                 17      1.559544  1 S  py         
    64     -1.515065  2 O  s                183      1.127288  4 O  pz         
    56     -1.087193  1 S  fyyy              18     -1.053875  1 S  pz         
    58     -0.940564  1 S  fyzz              71      0.902329  2 O  px         
    16     -0.844605  1 S  px                73     -0.825576  2 O  pz         

 Vector   59  Occ=0.000000D+00  E= 5.999546D-01
              MO Center= -1.9D-01,  1.1D-01,  2.4D-01, r^2= 7.1D+00
   Bfn.  Coefficient  Atom+Function         Bfn.  Coefficient  Atom+Function  
  ----- ------------  ---------------      ----- ------------  ---------------
     6     -3.614246  1 S  s                  5      3.523359  1 S  s          
    64      1.645903  2 O  s                119      1.648130  3 O  s          
   174      1.645900  4 O  s                183      1.411962  4 O  pz         
    63     -1.145790  2 O  s                118     -1.146898  3 O  s          
   173     -1.145851  4 O  s                 37      1.139295  1 S  dyy        

 Vector   60  Occ=0.000000D+00  E= 6.065654D-01
              MO Center= -3.3D-01,  1.9D-01,  4.8D-01, r^2= 8.2D+00
   Bfn.  Coefficient  Atom+Function         Bfn.  Coefficient  Atom+Function  
  ----- ------------  ---------------      ----- ------------  ---------------
    74      1.110527  2 O  px               185     -1.109813  4 O  py         
   130      1.012530  3 O  py                71     -0.970258  2 O  px         
   182      0.969253  4 O  py                90     -0.937355  2 O  dxy        
   127     -0.884312  3 O  py               203      0.754270  4 O  dyz        
    53     -0.737205  1 S  fxyy             184     -0.642721  4 O  px         

 Vector   61  Occ=0.000000D+00  E= 6.213047D-01
              MO Center= -2.4D-01,  1.5D-01,  3.5D-01, r^2= 7.6D+00
   Bfn.  Coefficient  Atom+Function         Bfn.  Coefficient  Atom+Function  
  ----- ------------  ---------------      ----- ------------  ---------------
    16      1.858017  1 S  px                74     -1.317490  2 O  px         
    19      1.293410  1 S  px               184     -1.293033  4 O  px         
    17      1.263320  1 S  py               128      1.207031  3 O  pz         
   131     -1.136178  3 O  pz                90      1.059799  2 O  dxy        
   130     -0.957614  3 O  py                20      0.878809  1 S  py         

 Vector   62  Occ=0.000000D+00  E= 6.213179D-01
              MO Center= -2.6D-01,  1.4D-01,  3.4D-01, r^2= 7.6D+00
   Bfn.  Coefficient  Atom+Function         Bfn.  Coefficient  Atom+Function  
  ----- ------------  ---------------      ----- ------------  ---------------
    17      1.866812  1 S  py                76      1.321568  2 O  pz         
    20      1.296797  1 S  py               185     -1.292431  4 O  py         
    73     -1.193771  2 O  pz                18     -1.161445  1 S  pz         
   130     -1.098179  3 O  py                93     -0.932488  2 O  dyz        
   200      0.936921  4 O  dxy               16     -0.844306  1 S  px         

 Vector   63  Occ=0.000000D+00  E= 6.278875D-01
              MO Center= -7.7D-01, -5.3D-02,  1.9D-01, r^2= 7.2D+00
   Bfn.  Coefficient  Atom+Function         Bfn.  Coefficient  Atom+Function  
  ----- ------------  ---------------      ----- ------------  ---------------
   119      9.117512  3 O  s                 64     -5.332224  2 O  s          
    16      5.205283  1 S  px                17      4.290724  1 S  py         
   174     -3.796803  4 O  s                 50     -1.983711  1 S  fxxx       
    51     -1.816727  1 S  fxxy             144     -1.774118  3 O  dxx        
    55     -1.724474  1 S  fxzz              18      1.647199  1 S  pz         

 Vector   64  Occ=0.000000D+00  E= 6.279018D-01
              MO Center=  2.0D-01,  3.9D-01,  6.2D-01, r^2= 7.2D+00
   Bfn.  Coefficient  Atom+Function         Bfn.  Coefficient  Atom+Function  
  ----- ------------  ---------------      ----- ------------  ---------------
   174      8.347427  4 O  s                 64     -7.460170  2 O  s          
    17      5.088548  1 S  py                18     -3.616505  1 S  pz         
    16     -3.048383  1 S  px                56     -1.951346  1 S  fyyy       
    58     -1.766996  1 S  fyzz             204     -1.759453  4 O  dzz        
    75      1.520270  2 O  py                51     -1.485340  1 S  fxxy       

 Vector   65  Occ=0.000000D+00  E= 6.456027D-01
              MO Center= -2.6D-01, -1.3D-01, -9.6D-02, r^2= 6.0D+00
   Bfn.  Coefficient  Atom+Function         Bfn.  Coefficient  Atom+Function  
  ----- ------------  ---------------      ----- ------------  ---------------
    16      4.223323  1 S  px                35     -3.063429  1 S  dxy        
    17      2.977598  1 S  py               119      2.473620  3 O  s          
    38     -2.309921  1 S  dyz               50     -1.755401  1 S  fxxx       
    55     -1.664651  1 S  fxzz              53     -1.536044  1 S  fxyy       
    18      1.513613  1 S  pz               182      1.518374  4 O  py         

 Vector   66  Occ=0.000000D+00  E= 6.456296D-01
              MO Center=  1.9D-01,  1.7D-01,  7.2D-02, r^2= 6.0D+00
   Bfn.  Coefficient  Atom+Function         Bfn.  Coefficient  Atom+Function  
  ----- ------------  ---------------      ----- ------------  ---------------
    17      4.213677  1 S  py                18     -2.683075  1 S  pz         
   174      2.162539  4 O  s                 36     -2.129935  1 S  dxz        
    64     -2.134295  2 O  s                 16     -2.007898  1 S  px         
    37      1.853830  1 S  dyy               35      1.818798  1 S  dxy        
    56     -1.740807  1 S  fyyy              58     -1.663879  1 S  fyzz       

 Vector   67  Occ=0.000000D+00  E= 6.586380D-01
              MO Center= -2.5D-01,  1.4D-01,  3.5D-01, r^2= 8.9D+00
   Bfn.  Coefficient  Atom+Function         Bfn.  Coefficient  Atom+Function  
  ----- ------------  ---------------      ----- ------------  ---------------
    64      8.555123  2 O  s                119      8.564055  3 O  s          
   174      8.554541  4 O  s                  5      7.223563  1 S  s          
     6     -7.259498  1 S  s                 37     -4.790856  1 S  dyy        
    34     -4.475415  1 S  dxx               18     -4.105050  1 S  pz         
    39     -3.637881  1 S  dzz               16      2.477803  1 S  px         

 Vector   68  Occ=0.000000D+00  E= 6.782126D-01
              MO Center= -1.1D-01,  5.7D-02,  9.8D-02, r^2= 6.5D+00
   Bfn.  Coefficient  Atom+Function         Bfn.  Coefficient  Atom+Function  
  ----- ------------  ---------------      ----- ------------  ---------------
   119      3.080963  3 O  s                 50      1.847085  1 S  fxxx       
   126      1.849001  3 O  px                35     -1.716489  1 S  dxy        
    51      1.672173  1 S  fxxy             174     -1.582196  4 O  s          
    64     -1.541607  2 O  s                118      1.499601  3 O  s          
    55      1.457256  1 S  fxzz              56      1.190248  1 S  fyyy       

 Vector   69  Occ=0.000000D+00  E= 6.782855D-01
              MO Center= -9.7D-02,  6.3D-02,  1.0D-01, r^2= 6.5D+00
   Bfn.  Coefficient  Atom+Function         Bfn.  Coefficient  Atom+Function  
  ----- ------------  ---------------      ----- ------------  ---------------
    64      2.688515  2 O  s                174     -2.665434  4 O  s          
    56     -1.868105  1 S  fyyy              72     -1.636690  2 O  py         
   183      1.552256  4 O  pz                58     -1.452388  1 S  fyzz       
    55      1.410496  1 S  fxzz              63      1.306866  2 O  s          
   173     -1.295268  4 O  s                 59      1.219439  1 S  fzzz       

 Vector   70  Occ=0.000000D+00  E= 7.194498D-01
              MO Center= -5.2D-01,  3.0D-01,  7.8D-01, r^2= 5.9D+00
   Bfn.  Coefficient  Atom+Function         Bfn.  Coefficient  Atom+Function  
  ----- ------------  ---------------      ----- ------------  ---------------
     6      7.852701  1 S  s                 37     -4.532537  1 S  dyy        
    34     -4.432681  1 S  dxx               18     -4.226730  1 S  pz         
    39     -4.172490  1 S  dzz                5     -2.653370  1 S  s          
    16      2.550032  1 S  px                94      1.488329  2 O  dzz        
   149      1.488084  3 O  dzz               17     -1.476319  1 S  py         

 Vector   71  Occ=0.000000D+00  E= 7.689394D-01
              MO Center=  2.6D-01, -1.5D-01, -5.0D-01, r^2= 6.0D+00
   Bfn.  Coefficient  Atom+Function         Bfn.  Coefficient  Atom+Function  
  ----- ------------  ---------------      ----- ------------  ---------------
     6     -8.635682  1 S  s                  5      8.464021  1 S  s          
    18     -6.405257  1 S  pz                52      5.716249  1 S  fxxz       
    59      5.593306  1 S  fzzz              57      5.243798  1 S  fyyz       
    63     -4.905667  2 O  s                118     -4.900647  3 O  s          
   173     -4.905757  4 O  s                 50     -3.928489  1 S  fxxx       

 Vector   72  Occ=0.000000D+00  E= 7.903406D-01
              MO Center= -4.1D-01,  8.7D-02,  4.1D-01, r^2= 6.1D+00
   Bfn.  Coefficient  Atom+Function         Bfn.  Coefficient  Atom+Function  
  ----- ------------  ---------------      ----- ------------  ---------------
    16     11.077102  1 S  px                17      6.625335  1 S  py         
    18      4.401977  1 S  pz               119      4.194905  3 O  s          
    35     -3.300926  1 S  dxy               34     -3.072012  1 S  dxx        
    53     -2.813685  1 S  fxyy              55     -2.788260  1 S  fxzz       
    36      2.603010  1 S  dxz               50     -2.522604  1 S  fxxx       

 Vector   73  Occ=0.000000D+00  E= 7.903565D-01
              MO Center= -2.1D-01,  2.7D-01,  4.7D-01, r^2= 6.1D+00
   Bfn.  Coefficient  Atom+Function         Bfn.  Coefficient  Atom+Function  
  ----- ------------  ---------------      ----- ------------  ---------------
    17     11.269816  1 S  py                18     -6.453484  1 S  pz         
    16     -4.177528  1 S  px                64     -3.800181  2 O  s          
   174      3.492997  4 O  s                 37      3.157771  1 S  dyy        
    51     -3.101558  1 S  fxxy              58     -2.931346  1 S  fyzz       
    39     -2.613236  1 S  dzz               38      2.457592  1 S  dyz        

 Vector   74  Occ=0.000000D+00  E= 8.627624D-01
              MO Center= -2.3D-01, -4.0D-02,  1.9D-02, r^2= 4.7D+00
   Bfn.  Coefficient  Atom+Function         Bfn.  Coefficient  Atom+Function  
  ----- ------------  ---------------      ----- ------------  ---------------
    16      5.318772  1 S  px               118      4.092868  3 O  s          
    17      3.846837  1 S  py               126      3.675005  3 O  px         
    35     -2.700402  1 S  dxy               34     -2.300435  1 S  dxx        
   119      2.294646  3 O  s                 63     -2.140001  2 O  s          
   144      1.989453  3 O  dxx              173     -1.965965  4 O  s          

 Vector   75  Occ=0.000000D+00  E= 8.628272D-01
              MO Center=  5.7D-02,  1.4D-01,  1.3D-01, r^2= 4.7D+00
   Bfn.  Coefficient  Atom+Function         Bfn.  Coefficient  Atom+Function  
  ----- ------------  ---------------      ----- ------------  ---------------
    17      5.279780  1 S  py               173      3.594473  4 O  s          
    63     -3.493930  2 O  s                 18     -3.419211  1 S  pz         
   183     -3.339529  4 O  pz                72      3.163059  2 O  py         
    16     -2.611940  1 S  px                37      2.312304  1 S  dyy        
   204      2.178901  4 O  dzz               39     -2.012347  1 S  dzz        

 Vector   76  Occ=0.000000D+00  E= 8.809617D-01
              MO Center= -2.5D-01,  1.4D-01,  3.4D-01, r^2= 5.8D+00
   Bfn.  Coefficient  Atom+Function         Bfn.  Coefficient  Atom+Function  
  ----- ------------  ---------------      ----- ------------  ---------------
    18      9.713938  1 S  pz                 5      7.698505  1 S  s          
    64     -7.709978  2 O  s                119     -7.704258  3 O  s          
   174     -7.710692  4 O  s                 16     -5.856766  1 S  px         
    37      5.847136  1 S  dyy               34      5.534928  1 S  dxx        
    39      4.708076  1 S  dzz               55      4.642918  1 S  fxzz       

 Vector   77  Occ=0.000000D+00  E= 8.920000D-01
              MO Center=  4.7D-02,  1.6D-01,  1.5D-01, r^2= 5.6D+00
   Bfn.  Coefficient  Atom+Function         Bfn.  Coefficient  Atom+Function  
  ----- ------------  ---------------      ----- ------------  ---------------
    17     14.515690  1 S  py                18     -9.030577  1 S  pz         
    64     -8.211628  2 O  s                174      8.143265  4 O  s          
    16     -6.568821  1 S  px                51     -5.808508  1 S  fxxy       
    58     -4.880704  1 S  fyzz              56     -3.567097  1 S  fyyy       
    57      3.423213  1 S  fyyz              37      2.618101  1 S  dyy        

 Vector   78  Occ=0.000000D+00  E= 8.920251D-01
              MO Center= -2.5D-01, -4.6D-02,  4.4D-02, r^2= 5.6D+00
   Bfn.  Coefficient  Atom+Function         Bfn.  Coefficient  Atom+Function  
  ----- ------------  ---------------      ----- ------------  ---------------
    16     14.488014  1 S  px                17      9.851983  1 S  py         
   119      9.437770  3 O  s                 58     -5.473413  1 S  fyzz       
    18      5.299268  1 S  pz                53     -5.113214  1 S  fxyy       
    55     -4.849150  1 S  fxzz             174     -4.775498  4 O  s          
    64     -4.657451  2 O  s                 50     -3.797464  1 S  fxxx       

 Vector   79  Occ=0.000000D+00  E= 9.382311D-01
              MO Center= -4.7D-02,  2.7D-02,  7.7D-03, r^2= 4.5D+00
   Bfn.  Coefficient  Atom+Function         Bfn.  Coefficient  Atom+Function  
  ----- ------------  ---------------      ----- ------------  ---------------
    54      6.360353  1 S  fxyz              57      4.542063  1 S  fyyz       
    51      4.288488  1 S  fxxy               6     -2.449207  1 S  s          
   146     -1.985766  3 O  dxz               73     -1.822577  2 O  pz         
   128     -1.793768  3 O  pz               181      1.736209  4 O  px         
    24     -1.674620  1 S  dxz               64      1.652142  2 O  s          

 Vector   80  Occ=0.000000D+00  E= 9.391420D-01
              MO Center= -2.4D-01,  1.3D-01,  3.2D-01, r^2= 4.3D+00
   Bfn.  Coefficient  Atom+Function         Bfn.  Coefficient  Atom+Function  
  ----- ------------  ---------------      ----- ------------  ---------------
    53      1.659102  1 S  fxyy              90     -1.098628  2 O  dxy        
   182     -0.967913  4 O  py               127      0.948144  3 O  py         
    71      0.930915  2 O  px                54     -0.910456  1 S  fxyz       
    57      0.859779  1 S  fyyz             146     -0.807017  3 O  dxz        
    52     -0.787872  1 S  fxxz             147      0.787568  3 O  dyy        

 Vector   81  Occ=0.000000D+00  E= 9.401103D-01
              MO Center=  5.9D-02, -8.3D-02, -2.5D-01, r^2= 5.0D+00
   Bfn.  Coefficient  Atom+Function         Bfn.  Coefficient  Atom+Function  
  ----- ------------  ---------------      ----- ------------  ---------------
   118      4.837160  3 O  s                 55      4.653194  1 S  fxzz       
    38      4.418123  1 S  dyz               58      4.388532  1 S  fyzz       
   182     -4.261216  4 O  py                50      4.223135  1 S  fxxx       
    53      3.669203  1 S  fxyy             126      3.300794  3 O  px         
    26      2.971787  1 S  dyz               73     -2.913891  2 O  pz         

 Vector   82  Occ=0.000000D+00  E= 9.401364D-01
              MO Center=  1.5D-01, -2.6D-02, -2.2D-01, r^2= 5.0D+00
   Bfn.  Coefficient  Atom+Function         Bfn.  Coefficient  Atom+Function  
  ----- ------------  ---------------      ----- ------------  ---------------
    51      4.751891  1 S  fxxy              58      4.558336  1 S  fyzz       
   181     -4.450141  4 O  px               173      4.251546  4 O  s          
    63     -4.130672  2 O  s                 35     -3.876543  1 S  dxy        
    56      3.837583  1 S  fyyy              72      3.819265  2 O  py         
   127     -3.354975  3 O  py                59     -3.294191  1 S  fzzz       

 Vector   83  Occ=0.000000D+00  E= 9.651147D-01
              MO Center= -1.8D-01,  1.1D-01,  2.4D-01, r^2= 5.1D+00
   Bfn.  Coefficient  Atom+Function         Bfn.  Coefficient  Atom+Function  
  ----- ------------  ---------------      ----- ------------  ---------------
     5      4.787571  1 S  s                 36      3.493714  1 S  dxz        
    73      2.728732  2 O  pz               128      2.728050  3 O  pz         
    93     -2.272379  2 O  dyz              183      2.158613  4 O  pz         
    24      2.141551  1 S  dxz               18     -2.059120  1 S  pz         
    38     -2.020045  1 S  dyz              181     -2.004033  4 O  px         

 Vector   84  Occ=0.000000D+00  E= 1.010354D+00
              MO Center=  2.7D-01,  2.0D-01,  3.7D-02, r^2= 4.4D+00
   Bfn.  Coefficient  Atom+Function         Bfn.  Coefficient  Atom+Function  
  ----- ------------  ---------------      ----- ------------  ---------------
    16     11.653445  1 S  px                17      7.930210  1 S  py         
    51     -5.991682  1 S  fxxy              50     -5.871729  1 S  fxxx       
    23      4.523349  1 S  dxy               18      4.263279  1 S  pz         
    55     -4.214475  1 S  fxzz              56     -3.929006  1 S  fyyy       
   119      3.880566  3 O  s                118     -3.604203  3 O  s          

 Vector   85  Occ=0.000000D+00  E= 1.010482D+00
              MO Center= -2.8D-01, -1.9D-01, -1.6D-01, r^2= 4.4D+00
   Bfn.  Coefficient  Atom+Function         Bfn.  Coefficient  Atom+Function  
  ----- ------------  ---------------      ----- ------------  ---------------
    17     11.669470  1 S  py                18     -7.261600  1 S  pz         
    56     -6.192855  1 S  fyyy              16     -5.283584  1 S  px         
    55      5.274606  1 S  fxzz              58     -4.184454  1 S  fyzz       
    52      3.706196  1 S  fxxz              59      3.489485  1 S  fzzz       
    64     -3.376793  2 O  s                174      3.349624  4 O  s          

 Vector   86  Occ=0.000000D+00  E= 1.065512D+00
              MO Center= -1.7D-01,  2.0D-02,  8.6D-02, r^2= 5.3D+00
   Bfn.  Coefficient  Atom+Function         Bfn.  Coefficient  Atom+Function  
  ----- ------------  ---------------      ----- ------------  ---------------
    53      7.008349  1 S  fxyy              52      6.755457  1 S  fxxz       
    71     -4.425768  2 O  px               128     -3.929789  3 O  pz         
    90      3.522996  2 O  dxy              181     -3.403963  4 O  px         
   146     -3.201484  3 O  dxz               54      3.092827  1 S  fxyz       
    55      3.015585  1 S  fxzz              56      2.626197  1 S  fyyy       

 Vector   87  Occ=0.000000D+00  E= 1.065532D+00
              MO Center= -4.6D-02,  1.0D-01,  1.3D-01, r^2= 5.3D+00
   Bfn.  Coefficient  Atom+Function         Bfn.  Coefficient  Atom+Function  
  ----- ------------  ---------------      ----- ------------  ---------------
    57      7.292078  1 S  fyyz              73     -4.502104  2 O  pz         
    51     -4.331656  1 S  fxxy              52      4.229820  1 S  fxxz       
    93      3.985848  2 O  dyz              127      3.455441  3 O  py         
    56     -3.429870  1 S  fyyy             182      3.406216  4 O  py         
    54     -3.304321  1 S  fxyz              58     -3.006005  1 S  fyzz       

 Vector   88  Occ=0.000000D+00  E= 1.103398D+00
              MO Center= -8.5D-02,  4.9D-02,  7.1D-02, r^2= 5.2D+00
   Bfn.  Coefficient  Atom+Function         Bfn.  Coefficient  Atom+Function  
  ----- ------------  ---------------      ----- ------------  ---------------
    53      7.905633  1 S  fxyy              54     -4.641454  1 S  fxyz       
    52     -4.038543  1 S  fxxz              57      4.047866  1 S  fyyz       
    71     -3.771298  2 O  px               182      3.774685  4 O  py         
    90      3.439154  2 O  dxy              127     -3.434663  3 O  py         
   203     -3.234499  4 O  dyz               58     -2.814484  1 S  fyzz       

 Vector   89  Occ=0.000000D+00  E= 1.110105D+00
              MO Center= -2.4D-01,  1.4D-01,  3.4D-01, r^2= 5.4D+00
   Bfn.  Coefficient  Atom+Function         Bfn.  Coefficient  Atom+Function  
  ----- ------------  ---------------      ----- ------------  ---------------
     5     46.212059  1 S  s                 72     13.922971  2 O  py         
   126    -12.517649  3 O  px               183     10.882417  4 O  pz         
    63    -10.219308  2 O  s                118    -10.219275  3 O  s          
   173    -10.218927  4 O  s                181      7.574918  4 O  px         
    57      7.229069  1 S  fyyz              92     -6.896649  2 O  dyy        

 Vector   90  Occ=0.000000D+00  E= 1.243447D+00
              MO Center= -4.7D-01, -1.4D-01,  1.2D-01, r^2= 4.7D+00
   Bfn.  Coefficient  Atom+Function         Bfn.  Coefficient  Atom+Function  
  ----- ------------  ---------------      ----- ------------  ---------------
   126     14.551868  3 O  px                53     11.044921  1 S  fxyy       
    55      7.985095  1 S  fxzz              58      7.616092  1 S  fyzz       
   183      7.416367  4 O  pz               144      7.190948  3 O  dxx        
    72      7.084954  2 O  py                16     -6.623148  1 S  px         
    50      6.648516  1 S  fxxx              52      6.492069  1 S  fxxz       

 Vector   91  Occ=0.000000D+00  E= 1.243495D+00
              MO Center=  1.3D-01,  3.4D-01,  3.1D-01, r^2= 4.7D+00
   Bfn.  Coefficient  Atom+Function         Bfn.  Coefficient  Atom+Function  
  ----- ------------  ---------------      ----- ------------  ---------------
    72     13.705087  2 O  py               183    -11.821732  4 O  pz         
    51      9.987393  1 S  fxxy              57     -9.064602  1 S  fyyz       
    58      8.219646  1 S  fyzz              56      7.041412  1 S  fyyy       
    92     -7.003974  2 O  dyy               17     -6.686263  1 S  py         
   181     -5.957862  4 O  px                63     -5.593769  2 O  s          

 Vector   92  Occ=0.000000D+00  E= 1.307124D+00
              MO Center= -4.3D-02,  2.5D-02,  1.3D-03, r^2= 3.9D+00
   Bfn.  Coefficient  Atom+Function         Bfn.  Coefficient  Atom+Function  
  ----- ------------  ---------------      ----- ------------  ---------------
     5     31.088247  1 S  s                 63    -12.469425  2 O  s          
   118    -12.469473  3 O  s                173    -12.469361  4 O  s          
    72      9.771917  2 O  py               126     -8.405765  3 O  px         
    57      7.423889  1 S  fyyz              52      7.341925  1 S  fxxz       
    59      7.251070  1 S  fzzz             183      6.631368  4 O  pz         

 Vector   93  Occ=0.000000D+00  E= 1.612644D+00
              MO Center= -1.1D-01,  6.4D-02,  1.1D-01, r^2= 2.8D+00
   Bfn.  Coefficient  Atom+Function         Bfn.  Coefficient  Atom+Function  
  ----- ------------  ---------------      ----- ------------  ---------------
    53      2.427571  1 S  fxyy              54     -1.418965  1 S  fxyz       
    52     -1.240805  1 S  fxxz              57      1.233296  1 S  fyyz       
    43     -1.202412  1 S  fxyy              58     -0.863373  1 S  fyzz       
    44      0.697774  1 S  fxyz              84      0.664637  2 O  dxy        
    50     -0.642751  1 S  fxxx             107     -0.645584  2 O  fxxz       

 Vector   94  Occ=0.000000D+00  E= 1.615645D+00
              MO Center= -2.5D-01,  1.4D-01,  3.4D-01, r^2= 2.8D+00
   Bfn.  Coefficient  Atom+Function         Bfn.  Coefficient  Atom+Function  
  ----- ------------  ---------------      ----- ------------  ---------------
    16      2.007395  1 S  px                17      1.465277  1 S  py         
   118      1.293360  3 O  s                 10      1.126573  1 S  px         
    42      1.007980  1 S  fxxz              90      0.924804  2 O  dxy        
   107     -0.924137  2 O  fxxz              52     -0.855213  1 S  fxxz       
    11      0.822567  1 S  py               128     -0.811484  3 O  pz         

 Vector   95  Occ=0.000000D+00  E= 1.615695D+00
              MO Center= -2.4D-01,  1.5D-01,  3.4D-01, r^2= 2.8D+00
   Bfn.  Coefficient  Atom+Function         Bfn.  Coefficient  Atom+Function  
  ----- ------------  ---------------      ----- ------------  ---------------
    17      1.994334  1 S  py                18     -1.300818  1 S  pz         
   173      1.138939  4 O  s                 11      1.119551  1 S  py         
    63     -1.100530  2 O  s                 16     -1.001469  1 S  px         
    73      0.878699  2 O  pz                93     -0.863876  2 O  dyz        
    47     -0.857425  1 S  fyyz             218     -0.816532  4 O  fxyy       

 Vector   96  Occ=0.000000D+00  E= 1.652859D+00
              MO Center= -2.2D-01,  1.3D-01,  2.9D-01, r^2= 6.0D+00
   Bfn.  Coefficient  Atom+Function         Bfn.  Coefficient  Atom+Function  
  ----- ------------  ---------------      ----- ------------  ---------------
     5     24.769926  1 S  s                 64      5.694506  2 O  s          
   119      5.690101  3 O  s                174      5.694356  4 O  s          
[...]
  ----- ------------  ---------------      ----- ------------  ---------------
    23      3.162624  1 S  dxy               24     -2.494311  1 S  dxz        
    54      1.951513  1 S  fxyz              25      1.892356  1 S  dyy        
    22     -1.776889  1 S  dxx               55     -1.590187  1 S  fxzz       
    84      1.387007  2 O  dxy              108     -1.250174  2 O  fxyy       
    51     -1.207365  1 S  fxxy              11     -1.075122  1 S  py         

 Vector  205  Occ=0.000000D+00  E= 7.086848D+00
              MO Center=  6.6D-02,  3.6D-01,  5.1D-01, r^2= 2.3D+00
   Bfn.  Coefficient  Atom+Function         Bfn.  Coefficient  Atom+Function  
  ----- ------------  ---------------      ----- ------------  ---------------
    26      3.758962  1 S  dyz               23      3.607418  1 S  dxy        
    58      2.086480  1 S  fyzz              51     -1.353747  1 S  fxxy       
    87      1.239912  2 O  dyz               84      1.185872  2 O  dxy        
    24      1.128547  1 S  dxz              112     -1.133537  2 O  fyyz       
    10      1.084980  1 S  px               108     -1.055084  2 O  fxyy       

 Vector  206  Occ=0.000000D+00  E= 7.313745D+00
              MO Center= -1.6D-01,  9.6D-02,  2.0D-01, r^2= 2.4D+00
   Bfn.  Coefficient  Atom+Function         Bfn.  Coefficient  Atom+Function  
  ----- ------------  ---------------      ----- ------------  ---------------
     3     11.358532  1 S  s                 63      8.716461  2 O  s          
   118      8.702459  3 O  s                173      8.717074  4 O  s          
    25     -8.191096  1 S  dyy               22     -7.707404  1 S  dxx        
    27     -6.451975  1 S  dzz                2      6.137810  1 S  s          
    28     -4.986037  1 S  dxx               31     -4.981493  1 S  dyy        

 Vector  207  Occ=0.000000D+00  E= 7.520513D+00
              MO Center= -8.1D-01, -2.3D-01,  1.9D-01, r^2= 2.4D+00
   Bfn.  Coefficient  Atom+Function         Bfn.  Coefficient  Atom+Function  
  ----- ------------  ---------------      ----- ------------  ---------------
    10     16.817112  1 S  px               118     15.386275  3 O  s          
    11     11.402921  1 S  py               173     -7.812399  4 O  s          
     7      7.748964  1 S  px                63     -7.574452  2 O  s          
    12      6.172098  1 S  pz                23     -6.078444  1 S  dxy        
     8      5.254204  1 S  py                43     -4.982894  1 S  fxyy       

 Vector  208  Occ=0.000000D+00  E= 7.520863D+00
              MO Center=  2.6D-01,  5.4D-01,  5.8D-01, r^2= 2.4D+00
   Bfn.  Coefficient  Atom+Function         Bfn.  Coefficient  Atom+Function  
  ----- ------------  ---------------      ----- ------------  ---------------
    11     16.866089  1 S  py                63    -13.402130  2 O  s          
   173     13.264009  4 O  s                 12    -10.469933  1 S  pz         
     8      7.771470  1 S  py                10     -7.593674  1 S  px         
    41     -5.154003  1 S  fxxy              25      4.932147  1 S  dyy        
     9     -4.824281  1 S  pz                48     -4.663066  1 S  fyzz       

 Vector  209  Occ=0.000000D+00  E= 1.068958D+01
              MO Center= -2.2D-01,  1.3D-01,  2.9D-01, r^2= 3.8D+00
   Bfn.  Coefficient  Atom+Function         Bfn.  Coefficient  Atom+Function  
  ----- ------------  ---------------      ----- ------------  ---------------
     5    -21.522314  1 S  s                  3     20.569408  1 S  s          
     2     14.332584  1 S  s                 61     -4.828264  2 O  s          
   116     -4.821275  3 O  s                171     -4.828280  4 O  s          
     6     -4.781614  1 S  s                 33     -3.495614  1 S  dzz        
    39      3.485139  1 S  dzz               28     -3.281617  1 S  dxx        

 Vector  210  Occ=0.000000D+00  E= 1.186218D+01
              MO Center=  2.0D-01,  3.3D-01,  6.0D-01, r^2= 2.8D+00
   Bfn.  Coefficient  Atom+Function         Bfn.  Coefficient  Atom+Function  
  ----- ------------  ---------------      ----- ------------  ---------------
   171      8.832396  4 O  s                 11     -7.533151  1 S  py         
    61     -7.548873  2 O  s                 12      5.627890  1 S  pz         
    10      4.968257  1 S  px               170      4.683225  4 O  s          
    60     -4.002660  2 O  s                 24      3.614692  1 S  dxz        
    25     -3.516584  1 S  dyy                8     -3.471613  1 S  py         

 Vector  211  Occ=0.000000D+00  E= 1.186237D+01
              MO Center= -7.4D-01, -1.8D-02,  1.5D-01, r^2= 2.8D+00
   Bfn.  Coefficient  Atom+Function         Bfn.  Coefficient  Atom+Function  
  ----- ------------  ---------------      ----- ------------  ---------------
   116      9.462373  3 O  s                 10     -7.789447  1 S  px         
    11     -6.861247  1 S  py                61     -5.837493  2 O  s          
   115      5.017298  3 O  s                 23      4.605139  1 S  dxy        
   138     -3.749621  3 O  dxx              171     -3.612117  4 O  s          
     7     -3.589782  1 S  px                22      3.551903  1 S  dxx        

 Vector  212  Occ=0.000000D+00  E= 1.314318D+01
              MO Center= -8.5D-01, -2.7D-01,  2.3D-01, r^2= 3.1D+00
   Bfn.  Coefficient  Atom+Function         Bfn.  Coefficient  Atom+Function  
  ----- ------------  ---------------      ----- ------------  ---------------
   125     11.637931  3 O  pz               152     -5.850049  3 O  fxxz       
   157     -5.847576  3 O  fyyz             159     -5.844886  3 O  fzzz       
   124      5.705729  3 O  py                70     -5.643838  2 O  pz         
   178      4.560361  4 O  px               180     -4.491171  4 O  pz         
   123     -3.508148  3 O  px               169     -3.510221  3 O  fzzz       

 Vector  213  Occ=0.000000D+00  E= 1.314331D+01
              MO Center=  2.6D-01,  6.0D-01,  6.0D-01, r^2= 3.1D+00
   Bfn.  Coefficient  Atom+Function         Bfn.  Coefficient  Atom+Function  
  ----- ------------  ---------------      ----- ------------  ---------------
    70     10.167312  2 O  pz               178      7.745552  4 O  px         
   180     -7.204010  4 O  pz                68     -6.078871  2 O  px         
    97     -5.096706  2 O  fxxz             102     -5.102617  2 O  fyyz       
   104     -5.107552  2 O  fzzz             179     -4.205531  4 O  py         
   205     -3.902336  4 O  fxxx             208     -3.898552  4 O  fxyy       

 Vector  214  Occ=0.000000D+00  E= 1.318443D+01
              MO Center= -2.9D-01,  1.7D-01,  4.2D-01, r^2= 3.6D+00
   Bfn.  Coefficient  Atom+Function         Bfn.  Coefficient  Atom+Function  
  ----- ------------  ---------------      ----- ------------  ---------------
    70      7.999135  2 O  pz               125      7.961005  3 O  pz         
   178     -6.344964  4 O  px               180      5.561065  4 O  pz         
     3     -4.913924  1 S  s                 68     -4.558174  2 O  px         
   102     -4.056934  2 O  fyyz              97     -4.024980  2 O  fxxz       
   104     -4.023922  2 O  fzzz             124      4.033376  3 O  py         

 Vector  215  Occ=0.000000D+00  E= 1.319949D+01
              MO Center= -2.8D-01,  1.6D-01,  4.0D-01, r^2= 3.7D+00
   Bfn.  Coefficient  Atom+Function         Bfn.  Coefficient  Atom+Function  
  ----- ------------  ---------------      ----- ------------  ---------------
    68      8.281384  2 O  px               179     -8.282665  4 O  py         
   124      7.550590  3 O  py               178     -4.796566  4 O  px         
    70      4.736419  2 O  pz               125     -4.740064  3 O  pz         
    95     -4.153721  2 O  fxxx             100     -4.150506  2 O  fxzz       
   206      4.145254  4 O  fxxy             211      4.145101  4 O  fyyy       

 Vector  216  Occ=0.000000D+00  E= 1.357999D+01
              MO Center= -7.6D-01, -3.1D-01,  2.5D-01, r^2= 3.1D+00
   Bfn.  Coefficient  Atom+Function         Bfn.  Coefficient  Atom+Function  
  ----- ------------  ---------------      ----- ------------  ---------------
   124     10.626058  3 O  py               179      7.368647  4 O  py         
   125     -6.555859  3 O  pz               151     -5.379872  3 O  fxxy       
   156     -5.351835  3 O  fyyy             158     -5.359375  3 O  fyzz       
    17     -4.952391  1 S  py                11      4.779158  1 S  py         
    68     -4.702838  2 O  px               123     -4.720925  3 O  px         

 Vector  217  Occ=0.000000D+00  E= 1.358035D+01
              MO Center=  2.2D-01,  6.3D-01,  5.2D-01, r^2= 3.1D+00
   Bfn.  Coefficient  Atom+Function         Bfn.  Coefficient  Atom+Function  
  ----- ------------  ---------------      ----- ------------  ---------------
    68     10.607873  2 O  px               179      8.999550  4 O  py         
   178      6.298537  4 O  px                70      5.787453  2 O  pz         
    98     -5.392616  2 O  fxyy              95     -5.363735  2 O  fxxx       
   100     -5.353253  2 O  fxzz              16     -4.854360  1 S  px         
    10      4.681197  1 S  px               213     -4.638979  4 O  fyzz       

 Vector  218  Occ=0.000000D+00  E= 1.447068D+01
              MO Center= -2.9D-01,  1.7D-01,  4.1D-01, r^2= 4.0D+00
   Bfn.  Coefficient  Atom+Function         Bfn.  Coefficient  Atom+Function  
  ----- ------------  ---------------      ----- ------------  ---------------
     5     25.330300  1 S  s                  3    -18.807513  1 S  s          
     2    -13.182034  1 S  s                 72      7.047976  2 O  py         
   126     -5.973960  3 O  px                69      5.767593  2 O  py         
    61     -4.834935  2 O  s                116     -4.830482  3 O  s          
   171     -4.834941  4 O  s                181      4.833914  4 O  px         

 Vector  219  Occ=0.000000D+00  E= 1.525099D+01
              MO Center= -2.5D-01,  1.4D-01,  3.4D-01, r^2= 3.2D+00
   Bfn.  Coefficient  Atom+Function         Bfn.  Coefficient  Atom+Function  
  ----- ------------  ---------------      ----- ------------  ---------------
     3     21.409843  1 S  s                  2     15.036379  1 S  s          
    69      7.918554  2 O  py               123     -7.645595  3 O  px         
   180      7.300381  4 O  pz                 5      5.139730  1 S  s          
    72      4.645646  2 O  py               126     -4.597267  3 O  px         
     4     -4.515430  1 S  s                183      4.525214  4 O  pz         

 Vector  220  Occ=0.000000D+00  E= 1.551351D+01
              MO Center= -8.5D-01, -2.2D-01,  1.8D-01, r^2= 3.0D+00
   Bfn.  Coefficient  Atom+Function         Bfn.  Coefficient  Atom+Function  
  ----- ------------  ---------------      ----- ------------  ---------------
   123     12.373810  3 O  px               126     10.639085  3 O  px         
    69      6.988363  2 O  py               150     -6.364019  3 O  fxxx       
   155     -6.391377  3 O  fxzz             153     -6.327665  3 O  fxyy       
    16      6.075739  1 S  px               124      6.101951  3 O  py         
    72      5.834452  2 O  py               165     -5.421779  3 O  fxzz       

 Vector  221  Occ=0.000000D+00  E= 1.551430D+01
              MO Center=  3.0D-01,  5.5D-01,  6.1D-01, r^2= 3.0D+00
   Bfn.  Coefficient  Atom+Function         Bfn.  Coefficient  Atom+Function  
  ----- ------------  ---------------      ----- ------------  ---------------
    69     11.929695  2 O  py                72     10.116631  2 O  py         
   180     -9.386656  4 O  pz               183     -8.313745  4 O  pz         
   178     -6.715284  4 O  px                96     -6.147559  2 O  fxxy       
   101     -6.118802  2 O  fyyy             103     -6.145274  2 O  fyzz       
    17      6.065447  1 S  py               181     -5.478953  4 O  px         

 Vector  222  Occ=0.000000D+00  E= 1.670303D+01
              MO Center= -1.5D-01, -4.5D-01,  6.8D-01, r^2= 2.0D+00
   Bfn.  Coefficient  Atom+Function         Bfn.  Coefficient  Atom+Function  
  ----- ------------  ---------------      ----- ------------  ---------------
   173      8.447214  4 O  s                118     -7.046822  3 O  s          
   171      5.435905  4 O  s                116     -4.535536  3 O  s          
   193     -3.945217  4 O  dxx              198     -3.952552  4 O  dzz        
   196     -3.895288  4 O  dyy              138      3.327935  3 O  dxx        
   143      3.270347  3 O  dzz              141      3.236713  3 O  dyy        

 Vector  223  Occ=0.000000D+00  E= 1.670304D+01
              MO Center= -4.1D-01,  7.7D-01,  9.4D-02, r^2= 2.0D+00
   Bfn.  Coefficient  Atom+Function         Bfn.  Coefficient  Atom+Function  
  ----- ------------  ---------------      ----- ------------  ---------------
    63      8.939650  2 O  s                 61      5.752695  2 O  s          
   118     -5.704549  3 O  s                 86     -4.218202  2 O  dyy        
    83     -4.131937  2 O  dxx               88     -4.130132  2 O  dzz        
    69      4.030539  2 O  py               116     -3.671585  3 O  s          
    72      3.594591  2 O  py               173     -3.251685  4 O  s          

 Vector  224  Occ=0.000000D+00  E= 1.681592D+01
              MO Center= -2.8D-01,  1.6D-01,  3.9D-01, r^2= 2.5D+00
   Bfn.  Coefficient  Atom+Function         Bfn.  Coefficient  Atom+Function  
  ----- ------------  ---------------      ----- ------------  ---------------
    63      7.014634  2 O  s                118      7.001297  3 O  s          
   173      7.015308  4 O  s                  3      5.228386  1 S  s          
    61      5.084054  2 O  s                116      5.074545  3 O  s          
   171      5.084613  4 O  s                  2      3.608832  1 S  s          
    86     -3.449918  2 O  dyy              138     -3.379630  3 O  dxx        


 center of mass
 --------------
 x =  -0.32780305 y =   0.18992308 z =   0.41058919

 moments of inertia (a.u.)
 ------------------
         244.713619070220         -22.931404508268         -65.587144759484
         -22.931404508268         218.423506952192          37.927262753745
         -65.587144759484          37.927262753745         313.872706960856

     Multipole analysis of the density
     ---------------------------------

     L   x y z        total         alpha         beta         nuclear
     -   - - -        -----         -----         ----         -------
     0   0 0 0     -0.000000    -20.000000    -20.000000     40.000000

     1   1 0 0      0.315797      6.712553      6.712553    -13.109309
     1   0 1 0     -0.182312     -3.888805     -3.888805      7.595297
     1   0 0 1     -0.522748     -8.470827     -8.470827     16.418907

     2   2 0 0    -22.643487    -49.429628    -49.429628     76.215768
     2   1 1 0     -0.596412     -4.788010     -4.788010      8.979608
     2   1 0 1     -1.749867    -14.585693    -14.585693     27.421519
     2   0 2 0    -23.329142    -54.919710    -54.919710     86.510278
     2   0 1 1      1.011716      8.431433      8.431433    -15.851151
     2   0 0 2    -20.705097    -32.387518    -32.387518     44.069938


 Task  times  cpu:       23.0s     wall:       25.1s


                                NWChem Input Module
                                -------------------


 Summary of allocated global arrays
-----------------------------------
  No active global arrays


MA_summarize_allocated_blocks: starting scan ...
heap block 'gridpts', handle 97, address 0x10fdb0f0:
	type of elements:		double precision
	number of elements:		33554432
	address of client space:	0x10fdb180
	index for client space:		11026825
	total number of bytes:		268435608
MA_summarize_allocated_blocks: scan completed: 1 heap block, 0 stack blocks
MA usage statistics:

	allocation statistics:
					      heap	     stack
					      ----	     -----
	current number of blocks	         1	         0
	maximum number of blocks	        21	        53
	current total bytes		 268435608	         0
	maximum total bytes		 268972752	  32528808
	maximum total K-bytes		    268973	     32529
	maximum total M-bytes		       269	        33


                                     CITATION
                                     --------
                Please cite the following reference when publishing
                           results obtained with NWChem:

          E. Apra, E. J. Bylaska, W. A. de Jong, N. Govind, K. Kowalski,
       T. P. Straatsma, M. Valiev, H. J. J. van Dam, Y. Alexeev, J. Anchell,
       V. Anisimov, F. W. Aquino, R. Atta-Fynn, J. Autschbach, N. P. Bauman,
     J. C. Becca, D. E. Bernholdt, K. Bhaskaran-Nair, S. Bogatko, P. Borowski,
         J. Boschen, J. Brabec, A. Bruner, E. Cauet, Y. Chen, G. N. Chuev,
      C. J. Cramer, J. Daily, M. J. O. Deegan, T. H. Dunning Jr., M. Dupuis,
   K. G. Dyall, G. I. Fann, S. A. Fischer, A. Fonari, H. Fruchtl, L. Gagliardi,
      J. Garza, N. Gawande, S. Ghosh, K. Glaesemann, A. W. Gotz, J. Hammond,
       V. Helms, E. D. Hermes, K. Hirao, S. Hirata, M. Jacquelin, L. Jensen,
   B. G. Johnson, H. Jonsson, R. A. Kendall, M. Klemm, R. Kobayashi, V. Konkov,
      S. Krishnamoorthy, M. Krishnan, Z. Lin, R. D. Lins, R. J. Littlefield,
      A. J. Logsdail, K. Lopata, W. Ma, A. V. Marenich, J. Martin del Campo,
   D. Mejia-Rodriguez, J. E. Moore, J. M. Mullin, T. Nakajima, D. R. Nascimento,
    J. A. Nichols, P. J. Nichols, J. Nieplocha, A. Otero-de-la-Roza, B. Palmer,
    A. Panyala, T. Pirojsirikul, B. Peng, R. Peverati, J. Pittner, L. Pollack,
   R. M. Richard, P. Sadayappan, G. C. Schatz, W. A. Shelton, D. W. Silverstein,
   D. M. A. Smith, T. A. Soares, D. Song, M. Swart, H. L. Taylor, G. S. Thomas,
            V. Tipparaju, D. G. Truhlar, K. Tsemekhman, T. Van Voorhis,
      A. Vazquez-Mayagoitia, P. Verma, O. Villa, A. Vishnu, K. D. Vogiatzis,
        D. Wang, J. H. Weare, M. J. Williamson, T. L. Windus, K. Wolinski,
        A. T. Wong, Q. Wu, C. Yang, Q. Yu, M. Zacharias, Z. Zhang, Y. Zhao,
                                and R. J. Harrison
                        "NWChem: Past, present, and future
                         J. Chem. Phys. 152, 184102 (2020)
                               doi:10.1063/5.0004997

                                      AUTHORS
                                      -------
  E. Apra, E. J. Bylaska, N. Govind, K. Kowalski, M. Valiev, D. Mejia-Rodriguez,
       A. Kunitsa, N. P. Bauman, A. Panyala, W. A. de Jong, T. P. Straatsma,
   H. J. J. van Dam, D. Wang, T. L. Windus, J. Hammond, J. Autschbach, A. Woods,
    K. Bhaskaran-Nair, J. Brabec, K. Lopata, S. A. Fischer, S. Krishnamoorthy,
     M. Jacquelin, W. Ma, M. Klemm, O. Villa, Y. Chen, V. Anisimov, F. Aquino,
     S. Hirata, M. T. Hackler, E. Hermes, L. Jensen, J. E. Moore, J. C. Becca,
      V. Konjkov, T. Risthaus, M. Malagoli, A. Marenich, A. Otero-de-la-Roza,
        J. Mullin, P. Nichols, R. Peverati, J. Pittner, Y. Zhao, P.-D. Fan,
        A. Fonari, M. J. Williamson, R. J. Harrison, J. R. Rehr, M. Dupuis,
     D. Silverstein, D. M. A. Smith, J. Nieplocha, V. Tipparaju, M. Krishnan,
     B. E. Van Kuiken, A. Vazquez-Mayagoitia, M. Swart, Q. Wu, T. Van Voorhis,
     A. A. Auer, M. Nooijen, L. D. Crosby, E. Brown, G. Cisneros, G. I. Fann,
   H. Fruchtl, J. Garza, K. Hirao, R. A. Kendall, J. A. Nichols, K. Tsemekhman,
    K. Wolinski, J. Anchell, D. E. Bernholdt, P. Borowski, T. Clark, D. Clerc,
   H. Dachsel, M. J. O. Deegan, K. Dyall, D. Elwood, E. Glendening, M. Gutowski,
   A. C. Hess, J. Jaffe, B. G. Johnson, J. Ju, R. Kobayashi, R. Kutteh, Z. Lin,
   R. Littlefield, X. Long, B. Meng, T. Nakajima, S. Niu, L. Pollack, M. Rosing,
   K. Glaesemann, G. Sandrone, M. Stave, H. Taylor, G. Thomas, J. H. van Lenthe,
                               A. T. Wong, Z. Zhang.

 Total times  cpu:       23.0s     wall:       25.3s
