 argument  1 = m1e/mol.nwi
                                         
                                         


             Northwest Computational Chemistry Package (NWChem) 7.2.2
             --------------------------------------------------------


                    Environmental Molecular Sciences Laboratory
                       Pacific Northwest National Laboratory
                                Richland, WA 99352

                              Copyright (c) 1994-2022
                       Pacific Northwest National Laboratory
                            Battelle Memorial Institute

             NWChem is an open-source computational chemistry package
                        distributed under the terms of the
                      Educational Community License (ECL) 2.0
             A copy of the license is included with this distribution
                              in the LICENSE.TXT file

                                  ACKNOWLEDGMENT
                                  --------------

            This software and its documentation were developed at the
            EMSL at Pacific Northwest National Laboratory, a multiprogram
            national laboratory, operated for the U.S. Department of Energy
            by Battelle under Contract Number DE-AC05-76RL01830. Support
            for this work was provided by the Department of Energy Office
            of Biological and Environmental Research, Office of Basic
            Energy Sciences, and the Office of Advanced Scientific Computing.


           Job information
           ---------------

    hostname        = r241.ib.bridges2.psc.edu
    program         = nwchem
    date            = Tue Oct  1 14:53:30 2024

    compiled        = Mon_Mar_18_17:03:37_2024
    source          = /ocean/projects/pscstaff/mmadrid/nwchem-7.2.2
    nwchem branch   = 7.2.2
    nwchem revision = 74936fb9
    ga revision     = 5.8.0
    use scalapack   = F
    input           = m1e/mol.nwi
    prefix          = dft.
    data base       = .//dft.db
    status          = startup
    nproc           =       15
    time left       =     -1s



           Memory information
           ------------------

    heap     =   67108860 doubles =    512.0 Mbytes
    stack    =   67108865 doubles =    512.0 Mbytes
    global   =  134217728 doubles =   1024.0 Mbytes (distinct from heap & stack)
    total    =  268435453 doubles =   2048.0 Mbytes
    verify   = yes
    hardfail = no 


           Directory information
           ---------------------

  0 permanent = ./
  0 scratch   = /jet/home/hmt47/nwchem_scratch/




                                NWChem Input Module
                                -------------------


  library name resolved from: environment
  library file name is: </opt/packages/nwchem/nwchem7.2.2/share/nwchem/libraries/>
  


 Summary of "ao basis" -> "" (cartesian)
 ------------------------------------------------------------------------------
       Tag                 Description            Shells   Functions and Types
 ---------------- ------------------------------  ------  ---------------------
 *                        aug-cc-pVTZ                 on all atoms 


  pbe96 is a nonlocal functional; adding pw91lda local functional. 

 Scaling coordinates for geometry "geometry" by  1.889725989
 (inverse scale =  0.529177249)



                             Geometry "geometry" -> ""
                             -------------------------

 Output coordinates in angstroms (scale by  1.889725989 to convert to a.u.)

  No.       Tag          Charge          X              Y              Z
 ---- ---------------- ---------- -------------- -------------- --------------
    1 C                    6.0000     0.00000000     0.00000000     0.00000000
    2 C                    6.0000    -0.04323700     0.00312400     1.55930900
    3 O                    8.0000     0.58214500     0.98664600    -0.52521400
    4 O                    8.0000    -0.55235300    -1.01129400    -0.51455300
    5 F                    9.0000     0.40358800     1.16565500     2.07771300
    6 F                    9.0000    -1.31153100    -0.19736900     1.99545500
    7 F                    9.0000     0.73253100    -1.00348800     2.04239700

      Atomic Mass 
      ----------- 

      C                 12.000000
      O                 15.994910
      F                 18.998400


 Effective nuclear repulsion energy (a.u.)     321.8037250422

            Nuclear Dipole moment (a.u.) 
            ----------------------------
        X                 Y               Z
 ---------------- ---------------- ----------------
    -3.0231722982    -0.9359019137   105.9716817116


            XYZ format geometry
            -------------------
     7
 geometry
 C                     0.00000000     0.00000000     0.00000000
 C                    -0.04323700     0.00312400     1.55930900
 O                     0.58214500     0.98664600    -0.52521400
 O                    -0.55235300    -1.01129400    -0.51455300
 F                     0.40358800     1.16565500     2.07771300
 F                    -1.31153100    -0.19736900     1.99545500
 F                     0.73253100    -1.00348800     2.04239700

 ==============================================================================
                                internuclear distances
 ------------------------------------------------------------------------------
       center one      |      center two      | atomic units |  angstroms
 ------------------------------------------------------------------------------
    2 C                |   1 C                |     2.94781  |     1.55991
    3 O                |   1 C                |     2.38151  |     1.26024
    4 O                |   1 C                |     2.38478  |     1.26197
    5 F                |   2 C                |     2.54929  |     1.34903
    6 F                |   2 C                |     2.56265  |     1.35609
    7 F                |   2 C                |     2.56923  |     1.35958
 ------------------------------------------------------------------------------
                         number of included internuclear distances:          6
 ==============================================================================



 ==============================================================================
                                 internuclear angles
 ------------------------------------------------------------------------------
        center 1       |       center 2       |       center 3       |  degrees
 ------------------------------------------------------------------------------
    2 C                |   1 C                |   3 O                |   115.33
    2 C                |   1 C                |   4 O                |   113.39
    3 O                |   1 C                |   4 O                |   131.27
    1 C                |   2 C                |   5 F                |   112.13
    1 C                |   2 C                |   6 F                |   110.31
    1 C                |   2 C                |   7 F                |   109.75
    5 F                |   2 C                |   6 F                |   108.28
    5 F                |   2 C                |   7 F                |   108.21
    6 F                |   2 C                |   7 F                |   108.05
 ------------------------------------------------------------------------------
                            number of included internuclear angles:          9
 ==============================================================================





                           NWChem Geometry Optimization
                           ----------------------------


 maximum gradient threshold         (gmax) =   0.000450
 rms gradient threshold             (grms) =   0.000300
 maximum cartesian step threshold   (xmax) =   0.001800
 rms cartesian step threshold       (xrms) =   0.001200
 fixed trust radius                (trust) =   0.300000
 maximum step size to saddle      (sadstp) =   0.100000
 energy precision                  (eprec) =   5.0D-06
 maximum number of steps          (nptopt) =   40
 initial hessian option           (inhess) =    0
 line search option               (linopt) =    1
 hessian update option            (modupd) =    1
 saddle point option              (modsad) =    0
 initial eigen-mode to follow     (moddir) =    0
 initial variable to follow       (vardir) =    0
 follow first negative mode     (firstneg) =    T
 apply conjugacy                    (opcg) =    F
 source of zmatrix                         =           


          -------------------
          Energy Minimization
          -------------------


 Using diagonal initial Hessian 

          --------
          Step   0
          --------


                         Geometry "geometry" -> "geometry"
                         ---------------------------------

 Output coordinates in angstroms (scale by  1.889725989 to convert to a.u.)

  No.       Tag          Charge          X              Y              Z
 ---- ---------------- ---------- -------------- -------------- --------------
    1 C                    6.0000     0.00000000     0.00000000     0.00000000
    2 C                    6.0000    -0.04323700     0.00312400     1.55930900
    3 O                    8.0000     0.58214500     0.98664600    -0.52521400
    4 O                    8.0000    -0.55235300    -1.01129400    -0.51455300
    5 F                    9.0000     0.40358800     1.16565500     2.07771300
    6 F                    9.0000    -1.31153100    -0.19736900     1.99545500
    7 F                    9.0000     0.73253100    -1.00348800     2.04239700

      Atomic Mass 
      ----------- 

      C                 12.000000
      O                 15.994910
      F                 18.998400


 Effective nuclear repulsion energy (a.u.)     321.8037250422

            Nuclear Dipole moment (a.u.) 
            ----------------------------
        X                 Y               Z
 ---------------- ---------------- ----------------
    -3.0231722982    -0.9359019137   105.9716817116


                                 NWChem DFT Module
                                 -----------------


                      Basis "ao basis" -> "ao basis" (cartesian)
                      -----
  C (Carbon)
  ----------
            Exponent  Coefficients 
       -------------- ---------------------------------------------------------
  1 S  8.23600000E+03  0.000531
  1 S  1.23500000E+03  0.004108
  1 S  2.80800000E+02  0.021087
  1 S  7.92700000E+01  0.081853
  1 S  2.55900000E+01  0.234817
  1 S  8.99700000E+00  0.434401
  1 S  3.31900000E+00  0.346129
  1 S  3.64300000E-01 -0.008983

  2 S  8.23600000E+03 -0.000113
  2 S  1.23500000E+03 -0.000878
  2 S  2.80800000E+02 -0.004540
  2 S  7.92700000E+01 -0.018133
  2 S  2.55900000E+01 -0.055760
  2 S  8.99700000E+00 -0.126895
  2 S  3.31900000E+00 -0.170352
  2 S  3.64300000E-01  0.598684

  3 S  9.05900000E-01  1.000000

  4 S  1.28500000E-01  1.000000

  5 S  4.40200000E-02  1.000000

  6 P  1.87100000E+01  0.014031
  6 P  4.13300000E+00  0.086866
  6 P  1.20000000E+00  0.290216

  7 P  3.82700000E-01  1.000000

  8 P  1.20900000E-01  1.000000

  9 P  3.56900000E-02  1.000000

 10 D  1.09700000E+00  1.000000

 11 D  3.18000000E-01  1.000000

 12 D  1.00000000E-01  1.000000

 13 F  7.61000000E-01  1.000000

 14 F  2.68000000E-01  1.000000

  O (Oxygen)
  ----------
            Exponent  Coefficients 
       -------------- ---------------------------------------------------------
  1 S  1.53300000E+04  0.000508
  1 S  2.29900000E+03  0.003929
  1 S  5.22400000E+02  0.020243
  1 S  1.47300000E+02  0.079181
  1 S  4.75500000E+01  0.230687
  1 S  1.67600000E+01  0.433118
  1 S  6.20700000E+00  0.350260
  1 S  6.88200000E-01 -0.008154

  2 S  1.53300000E+04 -0.000115
  2 S  2.29900000E+03 -0.000895
  2 S  5.22400000E+02 -0.004636
  2 S  1.47300000E+02 -0.018724
  2 S  4.75500000E+01 -0.058463
  2 S  1.67600000E+01 -0.136463
  2 S  6.20700000E+00 -0.175740
  2 S  6.88200000E-01  0.603418

  3 S  1.75200000E+00  1.000000

  4 S  2.38400000E-01  1.000000

  5 S  7.37600000E-02  1.000000

  6 P  3.44600000E+01  0.015928
  6 P  7.74900000E+00  0.099740
  6 P  2.28000000E+00  0.310492

  7 P  7.15600000E-01  1.000000

  8 P  2.14000000E-01  1.000000

  9 P  5.97400000E-02  1.000000

 10 D  2.31400000E+00  1.000000

 11 D  6.45000000E-01  1.000000

 12 D  2.14000000E-01  1.000000

 13 F  1.42800000E+00  1.000000

 14 F  5.00000000E-01  1.000000

  F (Fluorine)
  ------------
            Exponent  Coefficients 
       -------------- ---------------------------------------------------------
  1 S  1.95000000E+04  0.000507
  1 S  2.92300000E+03  0.003923
  1 S  6.64500000E+02  0.020200
  1 S  1.87500000E+02  0.079010
  1 S  6.06200000E+01  0.230439
  1 S  2.14200000E+01  0.432872
  1 S  7.95000000E+00  0.349964
  1 S  8.81500000E-01 -0.007892

  2 S  1.95000000E+04 -0.000117
  2 S  2.92300000E+03 -0.000912
  2 S  6.64500000E+02 -0.004717
  2 S  1.87500000E+02 -0.019086
  2 S  6.06200000E+01 -0.059655
  2 S  2.14200000E+01 -0.140010
  2 S  7.95000000E+00 -0.176782
  2 S  8.81500000E-01  0.605043

  3 S  2.25700000E+00  1.000000

  4 S  3.04100000E-01  1.000000

  5 S  9.15800000E-02  1.000000

  6 P  4.38800000E+01  0.016665
  6 P  9.92600000E+00  0.104472
  6 P  2.93000000E+00  0.317260

  7 P  9.13200000E-01  1.000000

  8 P  2.67200000E-01  1.000000

  9 P  7.36100000E-02  1.000000

 10 D  3.10700000E+00  1.000000

 11 D  8.55000000E-01  1.000000

 12 D  2.92000000E-01  1.000000

 13 F  1.91700000E+00  1.000000

 14 F  7.24000000E-01  1.000000



 Summary of "ao basis" -> "ao basis" (cartesian)
 ------------------------------------------------------------------------------
       Tag                 Description            Shells   Functions and Types
 ---------------- ------------------------------  ------  ---------------------
 C                        aug-cc-pVTZ               14       55   5s4p3d2f
 O                        aug-cc-pVTZ               14       55   5s4p3d2f
 F                        aug-cc-pVTZ               14       55   5s4p3d2f




 Summary of "ao basis" -> "ao basis" (cartesian)
 ------------------------------------------------------------------------------
       Tag                 Description            Shells   Functions and Types
 ---------------- ------------------------------  ------  ---------------------
 C                        aug-cc-pVTZ               14       55   5s4p3d2f
 O                        aug-cc-pVTZ               14       55   5s4p3d2f
 F                        aug-cc-pVTZ               14       55   5s4p3d2f


  Caching 1-el integrals 

            General Information
            -------------------
          SCF calculation type: DFT
          Wavefunction type:  closed shell.
          No. of atoms     :     7
          No. of electrons :    56
           Alpha electrons :    28
            Beta electrons :    28
          Charge           :    -1
          Spin multiplicity:     1
          Use of symmetry is: off; symmetry adaption is: off
          Maximum number of iterations: 200
          AO basis - number of functions:   385
                     number of shells:    98
          Convergence on energy requested:  1.00D-06
          Convergence on density requested:  1.00D-05
          Convergence on gradient requested:  5.00D-04

              XC Information
              --------------
          PerdewBurkeErnzerhof Exchange Functional  1.000          
            Perdew 1991 LDA Correlation Functional  1.000 local    
           PerdewBurkeErnz. Correlation Functional  1.000 non-local

             Grid Information
             ----------------
          Grid used for XC integration:  medium    
          Radial quadrature: Mura-Knowles        
          Angular quadrature: Lebedev. 
          Tag              B.-S. Rad. Rad. Pts. Rad. Cut. Ang. Pts.
          ---              ---------- --------- --------- ---------
          C                   0.70       49          11.0       434
          O                   0.60       49          12.0       434
          F                   0.50       49          12.0       434
          Grid pruning is: on 
          Number of quadrature shells:   343
          Spatial weights used:  Erf1

          Convergence Information
          -----------------------
          Convergence aids based upon iterative change in 
          total energy or number of iterations. 
          Levelshifting, if invoked, occurs when the 
          HOMO/LUMO gap drops below (HL_TOL):  1.00D-02
          DIIS, if invoked, will attempt to extrapolate 
          using up to (NFOCK): 10 stored Fock matrices.

                    Damping(40%)  Levelshifting(0.0)       DIIS
                  --------------- ------------------- ---------------
          dE  on:    start            0.00D+00            start   
          dE off:  200 iters          0.00D+00          200 iters 


      Screening Tolerance Information
      -------------------------------
          Density screening/tol_rho:  1.00D-10
          AO Gaussian exp screening on grid/accAOfunc:  14
          CD Gaussian exp screening on grid/accCDfunc:  20
          XC Gaussian exp screening on grid/accXCfunc:  20
          Schwarz screening/accCoul:  1.00D-08


 Forcing the number of linearly dependent vectors to be  0

      Superposition of Atomic Density Guess
      -------------------------------------

 Sum of atomic energies:        -523.14221801
   Time after variat. SCF:      0.6
   Time prior to 1st pass:      0.6

 Grid_pts file          = /jet/home/hmt47/nwchem_scratch//dft.gridpts.00
 Record size in doubles =  12289        No. of grid_pts per rec  =   3070
 Max. records in memory =      5        Max. recs in file   =  67550051

 Grid integrated density:      55.000005511820
 Requested integration accuracy:   0.10E-05

           Memory utilization after 1st SCF pass: 
           Heap Space remaining (MW):       33.49            33485748
          Stack Space remaining (MW):       67.11            67106852

   convergence    iter        energy       DeltaE   RMS-Dens  Diis-err    time
 ---------------- ----- ----------------- --------- --------- ---------  ------
 d=40,ls=0.0,diis     1   -526.8717563604 -8.49D+02  8.22D-03  5.46D+01     1.2
 Grid integrated density:      55.600004257251
 Requested integration accuracy:   0.10E-05
 d=40,ls=0.0,diis     2   -526.3185141285  5.53D-01  1.35D+00  9.31D+00     7.1
 Grid integrated density:      55.840005141066
 Requested integration accuracy:   0.10E-05
 d=40,ls=0.0,diis     3   -525.0922860348  1.23D+00  8.11D-01  6.02D+00    13.3
 Grid integrated density:      55.936004267545
 Requested integration accuracy:   0.10E-05
 d=40,ls=0.0,diis     4   -525.8295078825 -7.37D-01  3.25D-01  7.71D-01    19.5
 Grid integrated density:      55.974404153007
 Requested integration accuracy:   0.10E-05
 d=40,ls=0.0,diis     5   -525.9446726053 -1.15D-01  1.30D-01  7.11D-02    25.6
 Grid integrated density:      55.989764158832
 Requested integration accuracy:   0.10E-05
  Resetting Diis
 d=40,ls=0.0,diis     6   -525.9706166307 -2.59D-02  5.19D-02  9.78D-03    31.7
 Grid integrated density:      55.995908495574
 Requested integration accuracy:   0.10E-05
 d=40,ls=0.0,diis     7   -525.9794612374 -8.84D-03  2.08D-02  3.61D-03    38.0
 Grid integrated density:      55.998366125058
 Requested integration accuracy:   0.10E-05
 d=40,ls=0.0,diis     8   -525.9824864189 -3.03D-03  8.31D-03  6.22D-03    44.0
 Grid integrated density:      55.999349187108
 Requested integration accuracy:   0.10E-05
 d=40,ls=0.0,diis     9   -525.9845413378 -2.05D-03  3.33D-03  4.75D-04    50.1
 Grid integrated density:      55.999742403981
 Requested integration accuracy:   0.10E-05
 d=40,ls=0.0,diis    10   -525.9852236630 -6.82D-04  1.34D-03  1.30D-04    56.1
 Grid integrated density:      55.999899696021
 Requested integration accuracy:   0.10E-05
 d=40,ls=0.0,diis    11   -525.9855035426 -2.80D-04  5.38D-04  1.88D-05    62.1
 d=40,ls=0.0,diis    12   -525.9856140766 -1.11D-04  2.17D-04  3.14D-06    68.1
 d=40,ls=0.0,diis    13   -525.9856581513 -4.41D-05  8.70D-05  5.33D-07    74.2
 d=40,ls=0.0,diis    14   -525.9856757538 -1.76D-05  3.52D-05  8.64D-08    80.3
 d=40,ls=0.0,diis    15   -525.9856827877 -7.03D-06  1.43D-05  1.37D-08    86.4
 d=40,ls=0.0,diis    16   -525.9856856013 -2.81D-06  6.36D-06  2.25D-09    92.4
 d=40,ls=0.0,diis    17   -525.9856867264 -1.13D-06  3.08D-06  4.04D-10    98.4
 d=40,ls=0.0,diis    18   -525.9856871765 -4.50D-07  1.22D-06  8.03D-11   104.5


         Total DFT energy =     -525.985687176533
      One electron energy =    -1379.088110678435
           Coulomb energy =      590.375233179347
    Exchange-Corr. energy =      -59.076534719693
 Nuclear repulsion energy =      321.803725042248

 Numeric. integr. density =       56.000004384519

     Total iterative time =    104.0s



                       DFT Final Molecular Orbital Analysis
                       ------------------------------------

 Vector    1  Occ=2.000000D+00  E=-2.413038D+01
              MO Center=  7.3D-01, -1.0D+00,  2.0D+00, r^2= 1.3D-02
   Bfn.  Coefficient  Atom+Function         Bfn.  Coefficient  Atom+Function  
  ----- ------------  ---------------      ----- ------------  ---------------
   331      0.977971  7 F  s                333      0.065110  7 F  s          
    59     -0.048603  2 C  s                334     -0.040523  7 F  s          
    68      0.035978  2 C  py               225     -0.031112  5 F  s          
   363      0.030660  7 F  dyy              360      0.029719  7 F  dxx        
   365      0.028684  7 F  dzz              280     -0.025375  6 F  s          

 Vector    2  Occ=2.000000D+00  E=-2.412943D+01
              MO Center= -1.3D+00, -2.0D-01,  2.0D+00, r^2= 1.3D-02
   Bfn.  Coefficient  Atom+Function         Bfn.  Coefficient  Atom+Function  
  ----- ------------  ---------------      ----- ------------  ---------------
   276      0.977846  6 F  s                278      0.065057  6 F  s          
   279     -0.044001  6 F  s                 59     -0.038569  2 C  s          
    67      0.036395  2 C  px               305      0.031632  6 F  dxx        
   225     -0.031149  5 F  s                 88      0.030376  2 C  dyy        
   287      0.027957  6 F  px               310      0.027873  6 F  dzz        

 Vector    3  Occ=2.000000D+00  E=-2.412873D+01
              MO Center=  4.0D-01,  1.2D+00,  2.1D+00, r^2= 1.2D-02
   Bfn.  Coefficient  Atom+Function         Bfn.  Coefficient  Atom+Function  
  ----- ------------  ---------------      ----- ------------  ---------------
   221      0.978111  5 F  s                223      0.065206  5 F  s          
   224     -0.047267  5 F  s                 68     -0.039445  2 C  py         
    14     -0.031037  1 C  pz               253      0.031121  5 F  dyy        
   255      0.028318  5 F  dzz              250      0.027983  5 F  dxx        
    85      0.026657  2 C  dxx              169      0.025622  4 O  s          

 Vector    4  Occ=2.000000D+00  E=-1.852568D+01
              MO Center=  5.8D-01,  9.9D-01, -5.3D-01, r^2= 1.6D-02
   Bfn.  Coefficient  Atom+Function         Bfn.  Coefficient  Atom+Function  
  ----- ------------  ---------------      ----- ------------  ---------------
   111      0.982277  3 O  s                113      0.067198  3 O  s          
   169      0.058612  4 O  s                  4     -0.055575  1 C  s          
   114     -0.046145  3 O  s                 54      0.044049  1 C  fyzz       
    50      0.037990  1 C  fxyz              53      0.035906  1 C  fyyz       
    14      0.028934  1 C  pz                13     -0.028282  1 C  py         

 Vector    5  Occ=2.000000D+00  E=-1.852441D+01
              MO Center= -5.5D-01, -1.0D+00, -5.1D-01, r^2= 1.6D-02
   Bfn.  Coefficient  Atom+Function         Bfn.  Coefficient  Atom+Function  
  ----- ------------  ---------------      ----- ------------  ---------------
   166      0.982836  4 O  s                168      0.067519  4 O  s          
    59     -0.065242  2 C  s                114      0.060243  3 O  s          
   169     -0.053554  4 O  s                 54     -0.050095  1 C  fyzz       
    50      0.041245  1 C  fxyz              53      0.039144  1 C  fyyz       
    14      0.033825  1 C  pz                 4     -0.032993  1 C  s          

 Vector    6  Occ=2.000000D+00  E=-9.945372D+00
              MO Center= -4.3D-02,  3.1D-03,  1.6D+00, r^2= 2.8D-02
   Bfn.  Coefficient  Atom+Function         Bfn.  Coefficient  Atom+Function  
  ----- ------------  ---------------      ----- ------------  ---------------
    56      1.012320  2 C  s                 57      0.083707  2 C  s          
    58      0.064201  2 C  s          

 Vector    7  Occ=2.000000D+00  E=-9.794578D+00
              MO Center=  1.9D-08, -9.0D-07,  6.0D-06, r^2= 2.8D-02
   Bfn.  Coefficient  Atom+Function         Bfn.  Coefficient  Atom+Function  
  ----- ------------  ---------------      ----- ------------  ---------------
     1      1.012681  1 C  s                  2      0.085466  1 C  s          
     3      0.067102  1 C  s                114     -0.054446  3 O  s          
   169     -0.052099  4 O  s                  4     -0.048177  1 C  s          
    27      0.032102  1 C  dyy               25      0.031877  1 C  dxy        
    69     -0.031687  2 C  pz                33     -0.030022  1 C  dyy        

 Vector    8  Occ=2.000000D+00  E=-1.043208D+00
              MO Center= -5.2D-02,  5.5D-03,  2.0D+00, r^2= 1.4D+00
   Bfn.  Coefficient  Atom+Function         Bfn.  Coefficient  Atom+Function  
  ----- ------------  ---------------      ----- ------------  ---------------
   222      0.270153  5 F  s                277      0.264491  6 F  s          
   332      0.263609  7 F  s                 57      0.191353  2 C  s          
   224      0.188189  5 F  s                279      0.184527  6 F  s          
   334      0.184474  7 F  s                223      0.080286  5 F  s          
   278      0.078614  6 F  s                333      0.078352  7 F  s          

 Vector    9  Occ=2.000000D+00  E=-9.628539D-01
              MO Center=  4.2D-01,  2.5D-01,  2.0D+00, r^2= 1.4D+00
   Bfn.  Coefficient  Atom+Function         Bfn.  Coefficient  Atom+Function  
  ----- ------------  ---------------      ----- ------------  ---------------
   222      0.399090  5 F  s                332     -0.324143  7 F  s          
   224      0.275380  5 F  s                334     -0.225985  7 F  s          
   223      0.117694  5 F  s                333     -0.095657  7 F  s          
    62      0.088467  2 C  py               277     -0.084508  6 F  s          
    65      0.073878  2 C  py               279     -0.058532  6 F  s          

 Vector   10  Occ=2.000000D+00  E=-9.625938D-01
              MO Center= -5.3D-01, -2.9D-01,  2.0D+00, r^2= 1.4D+00
   Bfn.  Coefficient  Atom+Function         Bfn.  Coefficient  Atom+Function  
  ----- ------------  ---------------      ----- ------------  ---------------
   277      0.418317  6 F  s                279      0.290733  6 F  s          
   332     -0.279281  7 F  s                334     -0.195647  7 F  s          
   222     -0.137543  5 F  s                278      0.123537  6 F  s          
   224     -0.095379  5 F  s                 61     -0.087743  2 C  px         
   333     -0.082564  7 F  s                 64     -0.071589  2 C  px         

 Vector   11  Occ=2.000000D+00  E=-7.589696D-01
              MO Center=  1.5D-02,  1.3D-03, -3.2D-01, r^2= 1.2D+00
   Bfn.  Coefficient  Atom+Function         Bfn.  Coefficient  Atom+Function  
  ----- ------------  ---------------      ----- ------------  ---------------
   112      0.285243  3 O  s                167      0.280402  4 O  s          
     2      0.278468  1 C  s                169      0.156109  4 O  s          
   114      0.155060  3 O  s                115      0.081263  3 O  s          
   113      0.080591  3 O  s                168      0.079358  4 O  s          
     3      0.078943  1 C  s                170      0.078801  4 O  s          

 Vector   12  Occ=2.000000D+00  E=-6.817381D-01
              MO Center=  5.5D-03, -1.6D-02, -3.6D-01, r^2= 1.3D+00
   Bfn.  Coefficient  Atom+Function         Bfn.  Coefficient  Atom+Function  
  ----- ------------  ---------------      ----- ------------  ---------------
   167     -0.334053  4 O  s                112      0.331386  3 O  s          
   169     -0.288759  4 O  s                114      0.286455  3 O  s          
     7      0.143425  1 C  py               168     -0.092265  4 O  s          
   113      0.091427  3 O  s                  6      0.081453  1 C  px         
    10      0.053254  1 C  py               172     -0.048161  4 O  py         

 Vector   13  Occ=2.000000D+00  E=-4.869406D-01
              MO Center= -4.7D-02, -1.2D-02,  1.7D+00, r^2= 2.2D+00
   Bfn.  Coefficient  Atom+Function         Bfn.  Coefficient  Atom+Function  
  ----- ------------  ---------------      ----- ------------  ---------------
    57      0.339943  2 C  s                222     -0.146049  5 F  s          
   277     -0.145215  6 F  s                332     -0.145052  7 F  s          
   281      0.121739  6 F  px               284      0.113406  6 F  px         
   227     -0.111132  5 F  py               287      0.111476  6 F  px         
    11      0.106267  1 C  pz               233     -0.105882  5 F  py         

 Vector   14  Occ=2.000000D+00  E=-3.816013D-01
              MO Center= -3.5D-02,  1.0D-03,  1.3D+00, r^2= 2.1D+00
   Bfn.  Coefficient  Atom+Function         Bfn.  Coefficient  Atom+Function  
  ----- ------------  ---------------      ----- ------------  ---------------
    59      0.221569  2 C  s                 63      0.216263  2 C  pz         
    66      0.189500  2 C  pz                 4     -0.167761  1 C  s          
     2     -0.137295  1 C  s                 11     -0.125120  1 C  pz         
     8     -0.122793  1 C  pz               224     -0.117290  5 F  s          
   227     -0.115813  5 F  py               230     -0.112642  5 F  py         

 Vector   15  Occ=2.000000D+00  E=-3.716722D-01
              MO Center= -7.5D-02, -3.9D-01,  1.9D+00, r^2= 1.9D+00
   Bfn.  Coefficient  Atom+Function         Bfn.  Coefficient  Atom+Function  
  ----- ------------  ---------------      ----- ------------  ---------------
   337      0.187934  7 F  py               340      0.181103  7 F  py         
    61      0.175550  2 C  px               281     -0.160891  6 F  px         
   284     -0.155231  6 F  px               334     -0.142519  7 F  s          
    64      0.141566  2 C  px               279      0.121323  6 F  s          
   343      0.115869  7 F  py               226      0.113987  5 F  px         

 Vector   16  Occ=2.000000D+00  E=-3.692748D-01
              MO Center= -3.8D-02,  3.8D-01,  2.0D+00, r^2= 1.9D+00
   Bfn.  Coefficient  Atom+Function         Bfn.  Coefficient  Atom+Function  
  ----- ------------  ---------------      ----- ------------  ---------------
   227      0.208147  5 F  py               230      0.200894  5 F  py         
    62     -0.175470  2 C  py               281      0.157227  6 F  px         
   224      0.151977  5 F  s                284      0.151592  6 F  px         
    65     -0.149092  2 C  py               336     -0.129450  7 F  px         
   339     -0.124913  7 F  px               228      0.121074  5 F  pz         

 Vector   17  Occ=2.000000D+00  E=-2.486330D-01
              MO Center= -2.8D-01,  1.7D-02,  1.9D+00, r^2= 2.3D+00
   Bfn.  Coefficient  Atom+Function         Bfn.  Coefficient  Atom+Function  
  ----- ------------  ---------------      ----- ------------  ---------------
   282      0.252049  6 F  py               285      0.245558  6 F  py         
   228      0.174911  5 F  pz               288      0.175421  6 F  py         
   231      0.171259  5 F  pz               338     -0.135381  7 F  pz         
   341     -0.132654  7 F  pz               226     -0.111218  5 F  px         
   337      0.110795  7 F  py               340      0.108751  7 F  py         

 Vector   18  Occ=2.000000D+00  E=-2.482566D-01
              MO Center=  1.8D-01,  5.2D-04,  2.0D+00, r^2= 2.0D+00
   Bfn.  Coefficient  Atom+Function         Bfn.  Coefficient  Atom+Function  
  ----- ------------  ---------------      ----- ------------  ---------------
   226      0.215042  5 F  px               229      0.209948  5 F  px         
   336      0.184296  7 F  px               283     -0.179639  6 F  pz         
   339      0.179901  7 F  px               286     -0.176022  6 F  pz         
   232      0.136688  5 F  px               337      0.126907  7 F  py         
   342      0.124534  7 F  px               340      0.123182  7 F  py         

 Vector   19  Occ=2.000000D+00  E=-2.383133D-01
              MO Center= -8.4D-03, -7.6D-02,  4.3D-01, r^2= 3.6D+00
   Bfn.  Coefficient  Atom+Function         Bfn.  Coefficient  Atom+Function  
  ----- ------------  ---------------      ----- ------------  ---------------
     2      0.258066  1 C  s                169     -0.214109  4 O  s          
     4      0.182476  1 C  s                112     -0.171268  3 O  s          
   167     -0.163234  4 O  s                338      0.150895  7 F  pz         
   341      0.147605  7 F  pz               114     -0.134978  3 O  s          
   283      0.133323  6 F  pz               286      0.130126  6 F  pz         

 Vector   20  Occ=2.000000D+00  E=-2.193859D-01
              MO Center= -6.6D-02, -3.8D-01,  1.8D+00, r^2= 2.3D+00
   Bfn.  Coefficient  Atom+Function         Bfn.  Coefficient  Atom+Function  
  ----- ------------  ---------------      ----- ------------  ---------------
   338      0.189735  7 F  pz               341      0.186099  7 F  pz         
   281     -0.167955  6 F  px               336     -0.167111  7 F  px         
   284     -0.164666  6 F  px               339     -0.163807  7 F  px         
   283     -0.157356  6 F  pz               286     -0.154423  6 F  pz         
   344      0.148143  7 F  pz               289     -0.120148  6 F  pz         

 Vector   21  Occ=2.000000D+00  E=-2.130804D-01
              MO Center= -4.5D-02,  3.4D-01,  1.9D+00, r^2= 2.2D+00
   Bfn.  Coefficient  Atom+Function         Bfn.  Coefficient  Atom+Function  
  ----- ------------  ---------------      ----- ------------  ---------------
   228      0.206942  5 F  pz               231      0.203821  5 F  pz         
   227     -0.186026  5 F  py               230     -0.182346  5 F  py         
   283     -0.161519  6 F  pz               286     -0.159089  6 F  pz         
   234      0.154640  5 F  pz               337     -0.133902  7 F  py         
   340     -0.131004  7 F  py               289     -0.118811  6 F  pz         

 Vector   22  Occ=2.000000D+00  E=-1.928636D-01
              MO Center= -7.5D-02, -4.2D-03,  2.0D+00, r^2= 2.1D+00
   Bfn.  Coefficient  Atom+Function         Bfn.  Coefficient  Atom+Function  
  ----- ------------  ---------------      ----- ------------  ---------------
   282      0.247308  6 F  py               285      0.243994  6 F  py         
   226      0.231263  5 F  px               229      0.228282  5 F  px         
   336     -0.190125  7 F  px               339     -0.187816  7 F  px         
   288      0.184429  6 F  py               232      0.170172  5 F  px         
   337     -0.151725  7 F  py               340     -0.149457  7 F  py         

 Vector   23  Occ=2.000000D+00  E=-1.833255D-01
              MO Center=  2.4D-02,  8.7D-02,  6.9D-01, r^2= 3.1D+00
   Bfn.  Coefficient  Atom+Function         Bfn.  Coefficient  Atom+Function  
  ----- ------------  ---------------      ----- ------------  ---------------
     8      0.194942  1 C  pz               228      0.167940  5 F  pz         
    11      0.166313  1 C  pz               231      0.166457  5 F  pz         
    59     -0.143130  2 C  s                283      0.141797  6 F  pz         
   286      0.139782  6 F  pz               338      0.139535  7 F  pz         
   341      0.137125  7 F  pz               117      0.126717  3 O  py         

 Vector   24  Occ=2.000000D+00  E=-1.756209D-01
              MO Center= -2.1D-02, -5.5D-02, -4.4D-01, r^2= 2.4D+00
   Bfn.  Coefficient  Atom+Function         Bfn.  Coefficient  Atom+Function  
  ----- ------------  ---------------      ----- ------------  ---------------
     7      0.181830  1 C  py               172     -0.169895  4 O  py         
   175     -0.162644  4 O  py               117     -0.147400  3 O  py         
   167      0.144222  4 O  s                120     -0.141021  3 O  py         
   112     -0.130221  3 O  s                118      0.130371  3 O  pz         
   169      0.128400  4 O  s                121      0.126241  3 O  pz         

 Vector   25  Occ=2.000000D+00  E=-1.632680D-01
              MO Center=  9.3D-04, -2.3D-02, -8.3D-03, r^2= 2.2D+00
   Bfn.  Coefficient  Atom+Function         Bfn.  Coefficient  Atom+Function  
  ----- ------------  ---------------      ----- ------------  ---------------
     6      0.192287  1 C  px                 9      0.162223  1 C  px         
   116      0.160537  3 O  px               171      0.158034  4 O  px         
   119      0.157034  3 O  px               174      0.154290  4 O  px         
     7     -0.109353  1 C  py               338      0.105552  7 F  pz         
   341      0.104730  7 F  pz               122      0.101503  3 O  px         

 Vector   26  Occ=2.000000D+00  E=-4.303867D-02
              MO Center=  9.9D-04, -4.0D-02, -4.9D-01, r^2= 2.0D+00
   Bfn.  Coefficient  Atom+Function         Bfn.  Coefficient  Atom+Function  
  ----- ------------  ---------------      ----- ------------  ---------------
   171     -0.236395  4 O  px               174     -0.237268  4 O  px         
   116      0.234196  3 O  px               119      0.235022  3 O  px         
   122      0.159724  3 O  px               177     -0.159031  4 O  px         
   172      0.139098  4 O  py               175      0.139321  4 O  py         
   117     -0.127766  3 O  py               120     -0.128031  3 O  py         

 Vector   27  Occ=2.000000D+00  E=-2.810531D-02
              MO Center=  9.5D-03, -8.7D-03, -2.2D-01, r^2= 2.5D+00
   Bfn.  Coefficient  Atom+Function         Bfn.  Coefficient  Atom+Function  
  ----- ------------  ---------------      ----- ------------  ---------------
   118      0.242134  3 O  pz               121      0.242578  3 O  pz         
   173      0.239965  4 O  pz               176      0.239429  4 O  pz         
   124      0.166703  3 O  pz               179      0.165646  4 O  pz         
    66      0.164485  2 C  pz                63      0.153522  2 C  pz         
    57     -0.142119  2 C  s                 11     -0.077755  1 C  pz         

 Vector   28  Occ=2.000000D+00  E=-1.983260D-02
              MO Center=  9.7D-03, -5.4D-03, -3.9D-01, r^2= 2.2D+00
   Bfn.  Coefficient  Atom+Function         Bfn.  Coefficient  Atom+Function  
  ----- ------------  ---------------      ----- ------------  ---------------
   173     -0.215042  4 O  pz               176     -0.214215  4 O  pz         
   118      0.212237  3 O  pz               121      0.211018  3 O  pz         
   120      0.161884  3 O  py               117      0.157843  3 O  py         
   124      0.150352  3 O  pz               179     -0.148478  4 O  pz         
   175      0.143167  4 O  py               172      0.139891  4 O  py         

 Vector   29  Occ=0.000000D+00  E= 1.216636D-01
              MO Center= -8.8D-02,  4.6D-02,  3.8D+00, r^2= 9.9D+00
   Bfn.  Coefficient  Atom+Function         Bfn.  Coefficient  Atom+Function  
  ----- ------------  ---------------      ----- ------------  ---------------
     5     12.821976  1 C  s                 60     -9.541078  2 C  s          
     4      4.118494  1 C  s                 72      3.656251  2 C  pz         
   170     -2.782085  4 O  s                115     -2.742918  3 O  s          
    69      1.998268  2 C  pz                17      1.923851  1 C  pz         
    85      1.182470  2 C  dxx               88      1.029382  2 C  dyy        

 Vector   30  Occ=0.000000D+00  E= 1.467325D-01
              MO Center=  2.4D-02,  1.7D-01, -1.5D+00, r^2= 1.5D+01
   Bfn.  Coefficient  Atom+Function         Bfn.  Coefficient  Atom+Function  
  ----- ------------  ---------------      ----- ------------  ---------------
    60     13.183066  2 C  s                  5     -9.089139  1 C  s          
     4      4.707279  1 C  s                 17     -3.787029  1 C  pz         
   115     -3.006497  3 O  s                 72     -2.605256  2 C  pz         
   170     -2.412826  4 O  s                 35      2.039409  1 C  dzz        
    90     -1.742672  2 C  dzz               33      1.650612  1 C  dyy        

 Vector   31  Occ=0.000000D+00  E= 1.484123D-01
              MO Center=  6.9D-02, -1.7D-01,  1.7D+00, r^2= 1.2D+01
   Bfn.  Coefficient  Atom+Function         Bfn.  Coefficient  Atom+Function  
  ----- ------------  ---------------      ----- ------------  ---------------
    70      1.727073  2 C  px                60      1.643707  2 C  s          
   335     -1.547312  7 F  s                 67      1.325435  2 C  px         
     5     -1.107296  1 C  s                280      1.083822  6 F  s          
    71     -0.922865  2 C  py                68     -0.785734  2 C  py         
    17     -0.486086  1 C  pz               115     -0.410873  3 O  s          

 Vector   32  Occ=0.000000D+00  E= 1.520610D-01
              MO Center= -1.6D-01, -1.6D-01,  2.0D+00, r^2= 1.7D+01
   Bfn.  Coefficient  Atom+Function         Bfn.  Coefficient  Atom+Function  
  ----- ------------  ---------------      ----- ------------  ---------------
    71      2.369040  2 C  py               170      2.195692  4 O  s          
    70      1.339343  2 C  px               115     -1.163493  3 O  s          
   280      0.780720  6 F  s                 13      0.731971  1 C  py         
    68      0.733044  2 C  py                 4     -0.638336  1 C  s          
    60     -0.636807  2 C  s                182      0.635918  4 O  pz         

 Vector   33  Occ=0.000000D+00  E= 1.631837D-01
              MO Center=  2.0D-02,  5.4D-02,  3.2D-01, r^2= 7.7D+00
   Bfn.  Coefficient  Atom+Function         Bfn.  Coefficient  Atom+Function  
  ----- ------------  ---------------      ----- ------------  ---------------
   335      1.598825  7 F  s                280     -1.198630  6 F  s          
    67     -1.128433  2 C  px                68      0.700812  2 C  py         
    70     -0.661304  2 C  px                86      0.586295  2 C  dxy        
     5     -0.577625  1 C  s                 12      0.537552  1 C  px         
    15     -0.483158  1 C  px                60      0.433651  2 C  s          

 Vector   34  Occ=0.000000D+00  E= 1.795935D-01
              MO Center= -4.0D-02, -8.0D-02, -7.7D-02, r^2= 2.1D+01
   Bfn.  Coefficient  Atom+Function         Bfn.  Coefficient  Atom+Function  
  ----- ------------  ---------------      ----- ------------  ---------------
    16      4.223565  1 C  py               170      3.646316  4 O  s          
    71     -3.138258  2 C  py               115     -2.452630  3 O  s          
    15      2.284245  1 C  px                70     -1.686482  2 C  px         
   225      1.456242  5 F  s                  5     -1.414253  1 C  s          
    17     -1.341009  1 C  pz                59     -1.105321  2 C  s          

 Vector   35  Occ=0.000000D+00  E= 1.816663D-01
              MO Center= -3.2D-03,  1.4D-01,  3.5D-01, r^2= 1.9D+01
   Bfn.  Coefficient  Atom+Function         Bfn.  Coefficient  Atom+Function  
  ----- ------------  ---------------      ----- ------------  ---------------
     5      4.927477  1 C  s                 17      4.405328  1 C  pz         
    59      3.081612  2 C  s                 60     -2.634022  2 C  s          
   115     -2.449317  3 O  s                 72     -2.431367  2 C  pz         
   280     -1.438550  6 F  s                  4      1.208399  1 C  s          
   225     -1.211883  5 F  s                127     -1.139940  3 O  pz         

 Vector   36  Occ=0.000000D+00  E= 1.863460D-01
              MO Center= -6.8D-03,  2.9D-02, -5.2D-02, r^2= 1.8D+01
   Bfn.  Coefficient  Atom+Function         Bfn.  Coefficient  Atom+Function  
  ----- ------------  ---------------      ----- ------------  ---------------
    15      3.535143  1 C  px                70     -2.914266  2 C  px         
    16     -1.984119  1 C  py                71      1.642971  2 C  py         
   125     -0.721890  3 O  px               180     -0.675548  4 O  px         
     4      0.480855  1 C  s                126      0.438846  3 O  py         
   235      0.391727  5 F  px                32      0.375894  1 C  dxz        

 Vector   37  Occ=0.000000D+00  E= 2.192844D-01
              MO Center= -1.1D-01, -2.3D-01,  4.2D-01, r^2= 1.6D+01
   Bfn.  Coefficient  Atom+Function         Bfn.  Coefficient  Atom+Function  
  ----- ------------  ---------------      ----- ------------  ---------------
     4     15.285180  1 C  s                 59    -11.524097  2 C  s          
   170     -9.148795  4 O  s                  5      7.226000  1 C  s          
   115     -6.938500  3 O  s                 60     -6.122472  2 C  s          
    35      5.068502  1 C  dzz               33      4.327173  1 C  dyy        
    69      4.325844  2 C  pz                30      3.330068  1 C  dxx        

 Vector   38  Occ=0.000000D+00  E= 2.308024D-01
              MO Center= -2.4D-01, -1.5D-01,  1.3D+00, r^2= 1.3D+01
   Bfn.  Coefficient  Atom+Function         Bfn.  Coefficient  Atom+Function  
  ----- ------------  ---------------      ----- ------------  ---------------
   280      3.506877  6 F  s                 67      2.502672  2 C  px         
   290      2.151044  6 F  px               335     -2.157745  7 F  s          
    87      1.714465  2 C  dxz              115      1.524947  3 O  s          
     4     -1.260344  1 C  s                346     -1.236948  7 F  py         
   225     -1.139107  5 F  s                 70     -1.124619  2 C  px         

 Vector   39  Occ=0.000000D+00  E= 2.361573D-01
              MO Center= -4.1D-02,  1.0D-01,  1.2D+00, r^2= 1.7D+01
   Bfn.  Coefficient  Atom+Function         Bfn.  Coefficient  Atom+Function  
  ----- ------------  ---------------      ----- ------------  ---------------
     5     34.748699  1 C  s                 60    -31.246044  2 C  s          
   115     -6.927735  3 O  s                 17      6.574944  1 C  pz         
    72      6.208345  2 C  pz               170     -6.174162  4 O  s          
   225      4.183747  5 F  s                  4      3.254301  1 C  s          
    59     -2.964571  2 C  s                280      2.433092  6 F  s          

 Vector   40  Occ=0.000000D+00  E= 2.525989D-01
              MO Center=  2.2D-01,  1.0D-01,  7.9D-01, r^2= 1.3D+01
   Bfn.  Coefficient  Atom+Function         Bfn.  Coefficient  Atom+Function  
  ----- ------------  ---------------      ----- ------------  ---------------
     4     12.188853  1 C  s                 59     -7.652406  2 C  s          
   115     -7.570008  3 O  s                 35      4.816104  1 C  dzz        
     5     -4.527761  1 C  s                 60      4.150368  2 C  s          
    69      3.895946  2 C  pz                30      3.614203  1 C  dxx        
    33      3.530588  1 C  dyy              170     -3.305069  4 O  s          

 Vector   41  Occ=0.000000D+00  E= 2.691732D-01
              MO Center= -7.9D-02,  1.8D-01,  2.1D+00, r^2= 1.4D+01
   Bfn.  Coefficient  Atom+Function         Bfn.  Coefficient  Atom+Function  
  ----- ------------  ---------------      ----- ------------  ---------------
    60     21.771455  2 C  s                 59    -18.696593  2 C  s          
     5    -17.169060  1 C  s                 85     -8.375714  2 C  dxx        
    88     -8.127100  2 C  dyy               90     -8.024409  2 C  dzz        
   280      7.818112  6 F  s                335      7.322306  7 F  s          
   225      7.136846  5 F  s                  4      6.805781  1 C  s          

 Vector   42  Occ=0.000000D+00  E= 2.754144D-01
              MO Center=  4.3D-02,  2.3D-01,  3.7D-01, r^2= 1.4D+01
   Bfn.  Coefficient  Atom+Function         Bfn.  Coefficient  Atom+Function  
  ----- ------------  ---------------      ----- ------------  ---------------
     4      4.269716  1 C  s                170     -2.480392  4 O  s          
    33      2.250019  1 C  dyy              335     -2.184186  7 F  s          
   125      1.970633  3 O  px                68     -1.915915  2 C  py         
   115     -1.666595  3 O  s                 69      1.652928  2 C  pz         
   127     -1.224795  3 O  pz                85      1.206343  2 C  dxx        

 Vector   43  Occ=0.000000D+00  E= 2.801303D-01
              MO Center=  2.0D-01,  1.5D-01, -7.8D-02, r^2= 1.5D+01
   Bfn.  Coefficient  Atom+Function         Bfn.  Coefficient  Atom+Function  
  ----- ------------  ---------------      ----- ------------  ---------------
    59      4.852034  2 C  s                  4     -4.410891  1 C  s          
    34     -3.644985  1 C  dyz               60     -3.561779  2 C  s          
     5      3.049806  1 C  s                225     -2.961924  5 F  s          
   170      2.227334  4 O  s                 68      2.189734  2 C  py         
   127      2.019303  3 O  pz                85      1.849002  2 C  dxx        

 Vector   44  Occ=0.000000D+00  E= 2.913680D-01
              MO Center= -2.8D-01, -5.9D-01,  1.1D+00, r^2= 9.1D+00
   Bfn.  Coefficient  Atom+Function         Bfn.  Coefficient  Atom+Function  
  ----- ------------  ---------------      ----- ------------  ---------------
     4      5.794291  1 C  s                280     -3.721715  6 F  s          
   115     -3.630722  3 O  s                 60      3.606377  2 C  s          
   335     -3.088642  7 F  s                  5     -3.002971  1 C  s          
    34     -2.656689  1 C  dyz              170     -2.509398  4 O  s          
    69      2.002348  2 C  pz               182     -2.006457  4 O  pz         

 Vector   45  Occ=0.000000D+00  E= 2.980677D-01
              MO Center=  2.2D-01,  5.9D-01,  1.4D+00, r^2= 1.0D+01
   Bfn.  Coefficient  Atom+Function         Bfn.  Coefficient  Atom+Function  
  ----- ------------  ---------------      ----- ------------  ---------------
     4      7.547701  1 C  s                 60      7.069226  2 C  s          
    69      4.883780  2 C  pz               225     -4.582011  5 F  s          
     5     -3.523688  1 C  s                170     -3.071029  4 O  s          
   126     -2.664377  3 O  py                34      2.643261  1 C  dyz        
   115      2.614706  3 O  s                169     -2.416523  4 O  s          

 Vector   46  Occ=0.000000D+00  E= 3.015355D-01
              MO Center= -1.1D-01, -4.1D-01,  1.2D+00, r^2= 1.4D+01
   Bfn.  Coefficient  Atom+Function         Bfn.  Coefficient  Atom+Function  
  ----- ------------  ---------------      ----- ------------  ---------------
    86      2.120345  2 C  dxy               70      2.094849  2 C  px         
    87      2.023980  2 C  dxz              180     -1.814273  4 O  px         
     4      1.790380  1 C  s                347     -1.771761  7 F  pz         
   235     -1.717776  5 F  px               292      1.639529  6 F  pz         
    71     -1.426726  2 C  py                13     -1.116469  1 C  py         

 Vector   47  Occ=0.000000D+00  E= 3.100436D-01
              MO Center= -3.1D-01, -1.4D-01,  6.9D-01, r^2= 1.2D+01
   Bfn.  Coefficient  Atom+Function         Bfn.  Coefficient  Atom+Function  
  ----- ------------  ---------------      ----- ------------  ---------------
    60      5.274097  2 C  s                 15     -3.158304  1 C  px         
     5     -2.983176  1 C  s                170      2.941466  4 O  s          
     4      2.687086  1 C  s                 34     -2.473998  1 C  dyz        
    67     -2.455240  2 C  px               280     -2.369881  6 F  s          
   115     -2.235395  3 O  s                125      2.066335  3 O  px         

 Vector   48  Occ=0.000000D+00  E= 3.141445D-01
              MO Center=  1.2D-01, -4.5D-01,  8.3D-01, r^2= 1.1D+01
   Bfn.  Coefficient  Atom+Function         Bfn.  Coefficient  Atom+Function  
  ----- ------------  ---------------      ----- ------------  ---------------
    60      7.727689  2 C  s                  5     -5.559127  1 C  s          
    16     -4.150385  1 C  py               170      4.004731  4 O  s          
   181      3.340843  4 O  py               335     -2.898368  7 F  s          
   126      2.794124  3 O  py                67      2.568306  2 C  px         
     4     -2.393186  1 C  s                115     -2.399406  3 O  s          

 Vector   49  Occ=0.000000D+00  E= 3.244633D-01
              MO Center=  3.0D-01,  2.1D-01, -8.4D-01, r^2= 1.3D+01
   Bfn.  Coefficient  Atom+Function         Bfn.  Coefficient  Atom+Function  
  ----- ------------  ---------------      ----- ------------  ---------------
     5      8.210453  1 C  s                 60     -4.589105  2 C  s          
   127      3.778365  3 O  pz                17     -3.410925  1 C  pz         
   170     -2.819735  4 O  s                182      2.220197  4 O  pz         
   115     -1.930831  3 O  s                 13     -1.913562  1 C  py         
     4      1.893921  1 C  s                 15      1.605962  1 C  px         

 Vector   50  Occ=0.000000D+00  E= 3.336761D-01
              MO Center=  1.2D-01,  1.1D-01,  2.3D+00, r^2= 1.4D+01
   Bfn.  Coefficient  Atom+Function         Bfn.  Coefficient  Atom+Function  
  ----- ------------  ---------------      ----- ------------  ---------------
   225      7.146491  5 F  s                 71      5.308740  2 C  py         
    59     -4.241794  2 C  s                 68     -3.569347  2 C  py         
   170      3.571564  4 O  s                236     -3.470329  5 F  py         
    60      3.445712  2 C  s                 70      3.297268  2 C  px         
   237     -3.226993  5 F  pz                88     -3.199041  2 C  dyy        

 Vector   51  Occ=0.000000D+00  E= 3.363292D-01
              MO Center= -4.6D-01, -1.4D-01,  1.3D+00, r^2= 1.0D+01
   Bfn.  Coefficient  Atom+Function         Bfn.  Coefficient  Atom+Function  
  ----- ------------  ---------------      ----- ------------  ---------------
    59      7.434816  2 C  s                  4     -6.227081  1 C  s          
   280     -4.499181  6 F  s                 60     -3.404800  2 C  s          
    90      2.668220  2 C  dzz               85      2.551777  2 C  dxx        
    69     -2.409018  2 C  pz                71      2.313615  2 C  py         
    16     -2.141678  1 C  py                88      1.994308  2 C  dyy        

 Vector   52  Occ=0.000000D+00  E= 3.431116D-01
              MO Center= -3.3D-01,  5.9D-01,  1.2D+00, r^2= 1.3D+01
   Bfn.  Coefficient  Atom+Function         Bfn.  Coefficient  Atom+Function  
  ----- ------------  ---------------      ----- ------------  ---------------
     5     15.592323  1 C  s                 60    -12.303748  2 C  s          
    59     10.720291  2 C  s                115     -8.945849  3 O  s          
   170     -7.101905  4 O  s                 14     -5.716845  1 C  pz         
    69     -5.692355  2 C  pz                17      4.926832  1 C  pz         
    31      3.569122  1 C  dxy               33      3.083646  1 C  dyy        

 Vector   53  Occ=0.000000D+00  E= 3.464710D-01
              MO Center=  5.3D-01, -2.1D-01,  1.4D+00, r^2= 1.2D+01
   Bfn.  Coefficient  Atom+Function         Bfn.  Coefficient  Atom+Function  
  ----- ------------  ---------------      ----- ------------  ---------------
     5     11.187560  1 C  s                 60     -8.300026  2 C  s          
    59      5.272060  2 C  s                115     -4.781172  3 O  s          
   170     -4.293198  4 O  s                 17      3.537477  1 C  pz         
    69     -2.823452  2 C  pz               345     -2.671468  7 F  px         
    14     -2.405453  1 C  pz                70      2.264461  2 C  px         

 Vector   54  Occ=0.000000D+00  E= 3.551707D-01
              MO Center= -2.7D-01, -5.8D-01,  1.0D+00, r^2= 1.4D+01
   Bfn.  Coefficient  Atom+Function         Bfn.  Coefficient  Atom+Function  
  ----- ------------  ---------------      ----- ------------  ---------------
     4     14.024306  1 C  s                 59    -13.474709  2 C  s          
   115     -7.791950  3 O  s                 60      7.482815  2 C  s          
   170     -6.972657  4 O  s                 88     -6.808283  2 C  dyy        
    90     -6.496576  2 C  dzz              225      6.471845  5 F  s          
    85     -5.870669  2 C  dxx              280      5.198438  6 F  s          

 Vector   55  Occ=0.000000D+00  E= 3.568116D-01
              MO Center= -2.3D-01, -1.2D-01,  5.3D-01, r^2= 1.5D+01
   Bfn.  Coefficient  Atom+Function         Bfn.  Coefficient  Atom+Function  
  ----- ------------  ---------------      ----- ------------  ---------------
     5     12.039899  1 C  s                 60    -10.898149  2 C  s          
    59      7.157448  2 C  s                  4     -6.134448  1 C  s          
   170     -5.549076  4 O  s                 34      3.772128  1 C  dyz        
    68     -3.720641  2 C  py                89      3.650165  2 C  dyz        
    69     -3.376857  2 C  pz               115      3.204990  3 O  s          

 Vector   56  Occ=0.000000D+00  E= 3.611847D-01
              MO Center=  6.6D-02,  3.9D-01,  1.5D+00, r^2= 1.4D+01
   Bfn.  Coefficient  Atom+Function         Bfn.  Coefficient  Atom+Function  
  ----- ------------  ---------------      ----- ------------  ---------------
    15      3.546637  1 C  px                70     -3.487369  2 C  px         
   235      3.030801  5 F  px               335     -2.653514  7 F  s          
    60     -2.118153  2 C  s                346     -2.101023  7 F  py         
   180     -1.986585  4 O  px                71      1.821977  2 C  py         
   280      1.797202  6 F  s                125     -1.786410  3 O  px         

 Vector   57  Occ=0.000000D+00  E= 3.844821D-01
              MO Center= -5.1D-02, -3.1D-02,  2.3D-01, r^2= 8.7D+00
   Bfn.  Coefficient  Atom+Function         Bfn.  Coefficient  Atom+Function  
  ----- ------------  ---------------      ----- ------------  ---------------
   170      9.929614  4 O  s                 60     -8.556134  2 C  s          
   115      7.061358  3 O  s                 33     -4.792534  1 C  dyy        
     5      4.749616  1 C  s                 30     -4.139298  1 C  dxx        
     4     -3.296616  1 C  s                 59     -2.892045  2 C  s          
    14      2.741507  1 C  pz                35     -2.601204  1 C  dzz        

 Vector   58  Occ=0.000000D+00  E= 3.939519D-01
              MO Center=  1.1D-01,  1.9D-01,  6.1D-01, r^2= 1.3D+01
   Bfn.  Coefficient  Atom+Function         Bfn.  Coefficient  Atom+Function  
  ----- ------------  ---------------      ----- ------------  ---------------
   115      8.085937  3 O  s                170     -7.929601  4 O  s          
    13     -4.620819  1 C  py                 4      4.016253  1 C  s          
   335     -3.668608  7 F  s                 69      3.331146  2 C  pz         
   280     -2.855731  6 F  s                 12     -2.553015  1 C  px         
    85      2.496598  2 C  dxx              346     -2.315962  7 F  py         

 Vector   59  Occ=0.000000D+00  E= 4.193961D-01
              MO Center= -9.5D-02,  2.3D-01,  9.0D-01, r^2= 9.2D+00
   Bfn.  Coefficient  Atom+Function         Bfn.  Coefficient  Atom+Function  
  ----- ------------  ---------------      ----- ------------  ---------------
   115    -12.214581  3 O  s                 60    -12.064357  2 C  s          
     4     11.444242  1 C  s                  5     10.228233  1 C  s          
   170     -9.648848  4 O  s                 59     -8.206837  2 C  s          
    33      6.310187  1 C  dyy               30      5.305837  1 C  dxx        
    69      4.003264  2 C  pz                35      3.600190  1 C  dzz        

 Vector   60  Occ=0.000000D+00  E= 4.308470D-01
              MO Center= -1.0D-01, -4.1D-01,  1.9D+00, r^2= 1.0D+01
   Bfn.  Coefficient  Atom+Function         Bfn.  Coefficient  Atom+Function  
  ----- ------------  ---------------      ----- ------------  ---------------
   335     13.778696  7 F  s                280    -10.088378  6 F  s          
    67     -7.863175  2 C  px                68      5.886590  2 C  py         
    86      5.849143  2 C  dxy              290     -3.769717  6 F  px         
   345     -3.703563  7 F  px               225     -3.121432  5 F  s          
   346      3.075580  7 F  py                59     -2.316061  2 C  s          

 Vector   61  Occ=0.000000D+00  E= 4.409370D-01
              MO Center= -9.9D-02,  6.7D-02,  1.5D+00, r^2= 1.1D+01
   Bfn.  Coefficient  Atom+Function         Bfn.  Coefficient  Atom+Function  
  ----- ------------  ---------------      ----- ------------  ---------------
     4     30.813554  1 C  s                 59    -29.228292  2 C  s          
    60     20.606326  2 C  s                 14     17.795954  1 C  pz         
     5    -17.465735  1 C  s                 69     15.721077  2 C  pz         
    90    -13.349237  2 C  dzz               35      8.712996  1 C  dzz        
    85     -5.928176  2 C  dxx               88     -4.533750  2 C  dyy        

 Vector   62  Occ=0.000000D+00  E= 4.571329D-01
              MO Center= -2.4D-01,  4.8D-01,  1.5D+00, r^2= 1.1D+01
   Bfn.  Coefficient  Atom+Function         Bfn.  Coefficient  Atom+Function  
  ----- ------------  ---------------      ----- ------------  ---------------
   225     15.072942  5 F  s                 68     -9.990412  2 C  py         
   280     -9.429171  6 F  s                115     -9.073237  3 O  s          
     5      8.830774  1 C  s                 60     -7.548799  2 C  s          
    67     -6.993122  2 C  px                86     -5.729583  2 C  dxy        
   335     -5.332745  7 F  s                 14     -5.132208  1 C  pz         

 Vector   63  Occ=0.000000D+00  E= 4.766897D-01
              MO Center=  4.0D-01, -3.8D-01, -2.8D-01, r^2= 8.9D+00
   Bfn.  Coefficient  Atom+Function         Bfn.  Coefficient  Atom+Function  
  ----- ------------  ---------------      ----- ------------  ---------------
    60     15.829051  2 C  s                  5    -13.315263  1 C  s          
    59    -11.126889  2 C  s                  4      8.464139  1 C  s          
   335      6.984195  7 F  s                 88     -6.653623  2 C  dyy        
    90     -6.281329  2 C  dzz              225      5.911430  5 F  s          
    85     -5.384765  2 C  dxx               32     -4.540060  1 C  dxz        

 Vector   64  Occ=0.000000D+00  E= 4.812886D-01
              MO Center=  5.2D-01,  2.6D-01,  1.1D+00, r^2= 8.4D+00
   Bfn.  Coefficient  Atom+Function         Bfn.  Coefficient  Atom+Function  
  ----- ------------  ---------------      ----- ------------  ---------------
     5     15.665949  1 C  s                 60    -14.871066  2 C  s          
   225      7.162300  5 F  s                115     -5.762678  3 O  s          
    85      5.590100  2 C  dxx              280     -5.612434  6 F  s          
    68     -5.206342  2 C  py                 4      5.175936  1 C  s          
    87     -3.928594  2 C  dxz               31      3.056625  1 C  dxy        

 Vector   65  Occ=0.000000D+00  E= 4.863668D-01
              MO Center= -3.0D-01, -6.6D-02,  7.7D-01, r^2= 9.4D+00
   Bfn.  Coefficient  Atom+Function         Bfn.  Coefficient  Atom+Function  
  ----- ------------  ---------------      ----- ------------  ---------------
    60    -20.912445  2 C  s                  5     19.077826  1 C  s          
   225     -8.678488  5 F  s                 88      7.281992  2 C  dyy        
    30     -4.726521  1 C  dxx               33     -4.742276  1 C  dyy        
    35     -4.539979  1 C  dzz               85      4.259752  2 C  dxx        
   115      3.964161  3 O  s                 68      3.568904  2 C  py         

 Vector   66  Occ=0.000000D+00  E= 4.914176D-01
              MO Center=  9.3D-03,  4.0D-02, -5.3D-01, r^2= 1.0D+01
   Bfn.  Coefficient  Atom+Function         Bfn.  Coefficient  Atom+Function  
  ----- ------------  ---------------      ----- ------------  ---------------
     4     34.718585  1 C  s                 59    -33.045946  2 C  s          
    69     15.583627  2 C  pz                 5     14.638733  1 C  s          
   170    -14.253942  4 O  s                 60    -14.095492  2 C  s          
    35     13.848786  1 C  dzz              115    -13.768433  3 O  s          
    14     13.696157  1 C  pz                33      5.628402  1 C  dyy        

 Vector   67  Occ=0.000000D+00  E= 5.320974D-01
              MO Center= -2.1D-01, -2.3D-01,  1.6D+00, r^2= 1.0D+01
   Bfn.  Coefficient  Atom+Function         Bfn.  Coefficient  Atom+Function  
  ----- ------------  ---------------      ----- ------------  ---------------
    59     32.564449  2 C  s                280    -18.728414  6 F  s          
   225    -18.393312  5 F  s                335    -16.948248  7 F  s          
    88     13.617294  2 C  dyy               85     13.323756  2 C  dxx        
    90     12.250841  2 C  dzz                4     -7.090106  1 C  s          
    14     -5.743594  1 C  pz                60     -5.345452  2 C  s          

 Vector   68  Occ=0.000000D+00  E= 5.530215D-01
              MO Center= -7.1D-02, -2.2D-01,  1.2D+00, r^2= 9.0D+00
   Bfn.  Coefficient  Atom+Function         Bfn.  Coefficient  Atom+Function  
  ----- ------------  ---------------      ----- ------------  ---------------
    59      6.111826  2 C  s                 87     -4.824192  2 C  dxz        
    89      4.687383  2 C  dyz                4     -4.605614  1 C  s          
    69     -4.552224  2 C  pz                14     -4.184842  1 C  pz         
   170     -3.869147  4 O  s                280      2.881009  6 F  s          
    33      2.647898  1 C  dyy              115     -2.361444  3 O  s          

 Vector   69  Occ=0.000000D+00  E= 5.554663D-01
              MO Center= -2.6D-01, -3.9D-01,  1.1D+00, r^2= 8.8D+00
   Bfn.  Coefficient  Atom+Function         Bfn.  Coefficient  Atom+Function  
  ----- ------------  ---------------      ----- ------------  ---------------
    59     10.745512  2 C  s                 87      7.003525  2 C  dxz        
    89      6.055952  2 C  dyz              170     -5.575470  4 O  s          
    14     -5.033848  1 C  pz               225     -4.469118  5 F  s          
    69     -3.809934  2 C  pz                 4     -3.715924  1 C  s          
   280      3.118072  6 F  s                 30      2.864715  1 C  dxx        

 Vector   70  Occ=0.000000D+00  E= 5.656604D-01
              MO Center= -1.0D-02,  1.2D-01,  4.1D-01, r^2= 7.8D+00
   Bfn.  Coefficient  Atom+Function         Bfn.  Coefficient  Atom+Function  
  ----- ------------  ---------------      ----- ------------  ---------------
     5     20.237212  1 C  s                 60    -15.700271  2 C  s          
    59    -15.481989  2 C  s                  4     13.664845  1 C  s          
   225     10.406772  5 F  s                170     -9.632199  4 O  s          
   115     -8.888079  3 O  s                280      7.067492  6 F  s          
   335      5.496823  7 F  s                 85     -3.693004  2 C  dxx        

 Vector   71  Occ=0.000000D+00  E= 5.714360D-01
              MO Center= -1.4D-01,  1.8D-01,  1.7D+00, r^2= 8.4D+00
   Bfn.  Coefficient  Atom+Function         Bfn.  Coefficient  Atom+Function  
  ----- ------------  ---------------      ----- ------------  ---------------
     5      9.179901  1 C  s                 89      8.719878  2 C  dyz        
    60     -7.594521  2 C  s                  4     -6.258288  1 C  s          
   280      5.502081  6 F  s                225     -5.436674  5 F  s          
   115      4.435938  3 O  s                 34      4.390223  1 C  dyz        
    59      4.036819  2 C  s                 86     -3.649423  2 C  dxy        

 Vector   72  Occ=0.000000D+00  E= 6.002437D-01
              MO Center= -3.1D-01, -2.9D-01,  1.3D+00, r^2= 9.2D+00
   Bfn.  Coefficient  Atom+Function         Bfn.  Coefficient  Atom+Function  
  ----- ------------  ---------------      ----- ------------  ---------------
   280      9.656690  6 F  s                335     -8.157378  7 F  s          
    12      6.123101  1 C  px                67      5.668634  2 C  px         
    87      5.649943  2 C  dxz               32      3.718542  1 C  dxz        
   290      3.078847  6 F  px                31     -2.762397  1 C  dxy        
    68     -2.319986  2 C  py               346     -2.174184  7 F  py         

 Vector   73  Occ=0.000000D+00  E= 6.088826D-01
              MO Center=  3.3D-01,  3.6D-01,  4.1D-01, r^2= 8.4D+00
   Bfn.  Coefficient  Atom+Function         Bfn.  Coefficient  Atom+Function  
  ----- ------------  ---------------      ----- ------------  ---------------
   335      7.889626  7 F  s                 12     -6.597236  1 C  px         
     4      6.159265  1 C  s                 33      4.840789  1 C  dyy        
    87     -4.701253  2 C  dxz              280     -4.296480  6 F  s          
    86      4.216419  2 C  dxy               88     -4.103315  2 C  dyy        
     5      3.811445  1 C  s                 32     -3.665455  1 C  dxz        

 Vector   74  Occ=0.000000D+00  E= 6.208746D-01
              MO Center=  1.5D-02,  3.2D-01, -1.8D-01, r^2= 1.0D+01
   Bfn.  Coefficient  Atom+Function         Bfn.  Coefficient  Atom+Function  
  ----- ------------  ---------------      ----- ------------  ---------------
    34     17.906888  1 C  dyz              170    -10.808918  4 O  s          
   225     -9.992243  5 F  s                 89      9.851490  2 C  dyz        
    32      9.171712  1 C  dxz              335      7.361124  7 F  s          
   280      6.338748  6 F  s                115      4.893664  3 O  s          
     5      4.215669  1 C  s                124     -4.086139  3 O  pz         

 Vector   75  Occ=0.000000D+00  E= 6.327572D-01
              MO Center= -1.8D-01, -1.2D-01,  6.0D-01, r^2= 8.9D+00
   Bfn.  Coefficient  Atom+Function         Bfn.  Coefficient  Atom+Function  
  ----- ------------  ---------------      ----- ------------  ---------------
     4     29.532059  1 C  s                170    -15.628943  4 O  s          
     5     13.155485  1 C  s                 31     12.948452  1 C  dxy        
    33     10.583938  1 C  dyy               59    -10.583264  2 C  s          
   115     -9.893565  3 O  s                 13     -9.095262  1 C  py         
   169     -8.543910  4 O  s                 60     -6.939444  2 C  s          

 Vector   76  Occ=0.000000D+00  E= 6.403133D-01
              MO Center=  7.1D-02,  9.6D-02,  4.3D-01, r^2= 6.3D+00
   Bfn.  Coefficient  Atom+Function         Bfn.  Coefficient  Atom+Function  
  ----- ------------  ---------------      ----- ------------  ---------------
   115     12.815593  3 O  s                 13     -9.794325  1 C  py         
    69      6.593312  2 C  pz               335     -6.570989  7 F  s          
   280     -6.312285  6 F  s                 34      5.108381  1 C  dyz        
    68     -5.116812  2 C  py                 5     -4.943476  1 C  s          
    14      4.780286  1 C  pz                12     -4.564030  1 C  px         

 Vector   77  Occ=0.000000D+00  E= 6.560344D-01
              MO Center= -1.1D-02, -1.1D-02,  2.3D-02, r^2= 6.2D+00
   Bfn.  Coefficient  Atom+Function         Bfn.  Coefficient  Atom+Function  
  ----- ------------  ---------------      ----- ------------  ---------------
   115     -9.753263  3 O  s                 13      9.589731  1 C  py         
     4      8.638335  1 C  s                114     -7.717263  3 O  s          
     5      6.856266  1 C  s                 59     -6.820713  2 C  s          
    12      5.614545  1 C  px                31      5.154091  1 C  dxy        
   280      4.627015  6 F  s                335      4.346615  7 F  s          

 Vector   78  Occ=0.000000D+00  E= 6.841485D-01
              MO Center=  1.0D-01, -2.1D-01,  7.3D-01, r^2= 7.7D+00
   Bfn.  Coefficient  Atom+Function         Bfn.  Coefficient  Atom+Function  
  ----- ------------  ---------------      ----- ------------  ---------------
     4     24.348589  1 C  s                 69     10.709136  2 C  pz         
    67    -10.589323  2 C  px                68      9.668902  2 C  py         
    59     -8.843160  2 C  s                335      6.635860  7 F  s          
    33      5.690596  1 C  dyy               90     -5.626887  2 C  dzz        
    12      5.182987  1 C  px               114     -4.571051  3 O  s          

 Vector   79  Occ=0.000000D+00  E= 6.957751D-01
              MO Center= -2.3D-01, -7.1D-02,  8.8D-01, r^2= 8.1D+00
   Bfn.  Coefficient  Atom+Function         Bfn.  Coefficient  Atom+Function  
  ----- ------------  ---------------      ----- ------------  ---------------
     4     32.625404  1 C  s                 69     14.878930  2 C  pz         
    59    -13.911535  2 C  s                 67     12.479235  2 C  px         
    31      8.762828  1 C  dxy               90     -7.856783  2 C  dzz        
    86     -7.358046  2 C  dxy              280      6.953461  6 F  s          
   115     -6.556470  3 O  s                114     -6.322513  3 O  s          

 Vector   80  Occ=0.000000D+00  E= 7.453945D-01
              MO Center=  2.7D-01,  4.4D-01,  5.0D-01, r^2= 7.2D+00
   Bfn.  Coefficient  Atom+Function         Bfn.  Coefficient  Atom+Function  
  ----- ------------  ---------------      ----- ------------  ---------------
    68     18.281923  2 C  py               225    -13.563907  5 F  s          
    13    -10.470623  1 C  py                 5     -9.211127  1 C  s          
     4     -8.510615  1 C  s                 86      8.374768  2 C  dxy        
    14      8.228933  1 C  pz                60      8.147398  2 C  s          
    67      7.481423  2 C  px                31     -6.436711  1 C  dxy        

 Vector   81  Occ=0.000000D+00  E= 7.596710D-01
              MO Center= -1.7D-03,  1.2D-02,  3.2D-01, r^2= 8.7D+00
   Bfn.  Coefficient  Atom+Function         Bfn.  Coefficient  Atom+Function  
  ----- ------------  ---------------      ----- ------------  ---------------
    59    -62.051812  2 C  s                  4     57.934303  1 C  s          
    14     39.151093  1 C  pz                69     28.961268  2 C  pz         
    90    -16.227955  2 C  dzz               35     12.051068  1 C  dzz        
    60      9.783847  2 C  s                 85     -9.474764  2 C  dxx        
    88     -8.093298  2 C  dyy                5     -6.832176  1 C  s          

 Vector   82  Occ=0.000000D+00  E= 7.792986D-01
              MO Center= -3.9D-02, -3.9D-02,  5.1D-01, r^2= 8.1D+00
   Bfn.  Coefficient  Atom+Function         Bfn.  Coefficient  Atom+Function  
  ----- ------------  ---------------      ----- ------------  ---------------
    59     35.320047  2 C  s                  4    -21.544611  1 C  s          
    69    -18.318769  2 C  pz                14    -16.681181  1 C  pz         
   115     12.881160  3 O  s                 35    -12.395669  1 C  dzz        
    33    -10.825034  1 C  dyy              170     10.836092  4 O  s          
    90     10.108990  2 C  dzz               30    -10.042611  1 C  dxx        

 Vector   83  Occ=0.000000D+00  E= 7.954186D-01
              MO Center= -1.3D-01,  5.5D-03, -1.8D-01, r^2= 8.3D+00
   Bfn.  Coefficient  Atom+Function         Bfn.  Coefficient  Atom+Function  
  ----- ------------  ---------------      ----- ------------  ---------------
    59     24.140954  2 C  s                  4    -13.181099  1 C  s          
    60     13.098224  2 C  s                 69     -9.053202  2 C  pz         
    85     -8.108542  2 C  dxx               88     -7.996818  2 C  dyy        
   225      7.544958  5 F  s                  5     -7.143794  1 C  s          
   224     -6.917626  5 F  s                334     -6.757659  7 F  s          

 Vector   84  Occ=0.000000D+00  E= 8.013829D-01
              MO Center= -8.8D-02, -3.0D-01, -1.3D-01, r^2= 6.5D+00
   Bfn.  Coefficient  Atom+Function         Bfn.  Coefficient  Atom+Function  
  ----- ------------  ---------------      ----- ------------  ---------------
   280      4.856945  6 F  s                 67      4.277347  2 C  px         
    86     -3.991973  2 C  dxy              335     -3.984708  7 F  s          
    59      3.679132  2 C  s                 88      3.018867  2 C  dyy        
    14     -2.827855  1 C  pz                 5      2.332574  1 C  s          
    31      2.150330  1 C  dxy               60     -2.080988  2 C  s          

 Vector   85  Occ=0.000000D+00  E= 8.094376D-01
              MO Center=  6.4D-02,  1.3D-01,  4.4D-01, r^2= 8.1D+00
   Bfn.  Coefficient  Atom+Function         Bfn.  Coefficient  Atom+Function  
  ----- ------------  ---------------      ----- ------------  ---------------
    88     -9.639802  2 C  dyy              225      9.404104  5 F  s          
     4      9.229954  1 C  s                 60      9.033289  2 C  s          
    90     -7.871303  2 C  dzz               59     -7.532632  2 C  s          
    68     -6.376543  2 C  py               335      6.297554  7 F  s          
    67     -6.221753  2 C  px                14      5.075381  1 C  pz         

 Vector   86  Occ=0.000000D+00  E= 8.356606D-01
              MO Center=  9.0D-02,  2.4D-01,  5.3D-01, r^2= 7.9D+00
   Bfn.  Coefficient  Atom+Function         Bfn.  Coefficient  Atom+Function  
  ----- ------------  ---------------      ----- ------------  ---------------
    59     14.236567  2 C  s                 68    -10.027163  2 C  py         
     4     -9.129312  1 C  s                 14     -9.156789  1 C  pz         
    60     -6.681827  2 C  s                  5      6.520526  1 C  s          
    67     -6.194287  2 C  px                85      6.024235  2 C  dxx        
    69     -5.808224  2 C  pz               280     -5.339189  6 F  s          

 Vector   87  Occ=0.000000D+00  E= 8.442581D-01
              MO Center=  8.3D-02, -1.0D-01,  1.0D-01, r^2= 6.4D+00
   Bfn.  Coefficient  Atom+Function         Bfn.  Coefficient  Atom+Function  
  ----- ------------  ---------------      ----- ------------  ---------------
    59      5.353384  2 C  s                  4     -4.004567  1 C  s          
    68     -3.124622  2 C  py               335     -2.914855  7 F  s          
    14     -2.514232  1 C  pz                86     -2.469603  2 C  dxy        
    88      2.257159  2 C  dyy               69     -2.230401  2 C  pz         
    60     -2.180914  2 C  s                279      2.149346  6 F  s          

 Vector   88  Occ=0.000000D+00  E= 8.545375D-01
              MO Center= -2.4D-02,  1.5D-02, -1.3D-01, r^2= 7.5D+00
   Bfn.  Coefficient  Atom+Function         Bfn.  Coefficient  Atom+Function  
  ----- ------------  ---------------      ----- ------------  ---------------
   115      8.459416  3 O  s                114     -4.671873  3 O  s          
[...]
   287      5.425433  6 F  px               284      5.276570  6 F  px         
   231      4.842383  5 F  pz               234      4.666691  5 F  pz         

 Vector  381  Occ=0.000000D+00  E= 2.352044D+01
              MO Center= -4.2D-01, -4.6D-01,  2.0D+00, r^2= 1.8D+00
   Bfn.  Coefficient  Atom+Function         Bfn.  Coefficient  Atom+Function  
  ----- ------------  ---------------      ----- ------------  ---------------
   279     12.299356  6 F  s                334     -9.954840  7 F  s          
    67     -7.592521  2 C  px               284     -6.666067  6 F  px         
   287     -5.688279  6 F  px               305     -5.278508  6 F  dxx        
   310     -4.815828  6 F  dzz              340      4.835943  7 F  py         
   105     -4.772671  2 C  fxyz             343      4.789015  7 F  py         

 Vector  382  Occ=0.000000D+00  E= 2.379155D+01
              MO Center=  3.6D-01,  6.7D-01,  2.0D+00, r^2= 1.6D+00
   Bfn.  Coefficient  Atom+Function         Bfn.  Coefficient  Atom+Function  
  ----- ------------  ---------------      ----- ------------  ---------------
   224    -12.749458  5 F  s                169     11.745074  4 O  s          
   233     -9.141751  5 F  py                 4     -8.534827  1 C  s          
   253      7.836671  5 F  dyy               59     -7.683334  2 C  s          
   230     -7.103851  5 F  py               255      6.603290  5 F  dzz        
    54      6.470861  1 C  fyzz             250      6.337375  5 F  dxx        

 Vector  383  Occ=0.000000D+00  E= 2.409922D+01
              MO Center= -1.1D-01, -2.4D-01,  2.0D+00, r^2= 2.3D+00
   Bfn.  Coefficient  Atom+Function         Bfn.  Coefficient  Atom+Function  
  ----- ------------  ---------------      ----- ------------  ---------------
    59     13.147241  2 C  s                 68    -12.860714  2 C  py         
   224     -9.859108  5 F  s                287     -8.583637  6 F  px         
   334      8.504409  7 F  s                  4      8.390361  1 C  s          
   225      7.996925  5 F  s                279      7.893306  6 F  s          
   305     -6.743753  6 F  dxx              342      6.635500  7 F  px         

 Vector  384  Occ=0.000000D+00  E= 2.756358D+01
              MO Center= -4.7D-02, -1.3D-03,  1.4D+00, r^2= 1.8D+00
   Bfn.  Coefficient  Atom+Function         Bfn.  Coefficient  Atom+Function  
  ----- ------------  ---------------      ----- ------------  ---------------
    57     29.301415  2 C  s                 56     14.405291  2 C  s          
    50     11.438069  1 C  fxyz              53      9.685162  1 C  fyyz       
   105      7.118774  2 C  fxyz              59     -5.716618  2 C  s          
     2      5.630252  1 C  s                 33     -5.158568  1 C  dyy        
   108      5.182048  2 C  fyyz               4     -4.585119  1 C  s          

 Vector  385  Occ=0.000000D+00  E= 2.916989D+01
              MO Center= -1.8D-02, -7.7D-03,  6.5D-02, r^2= 1.6D+00
   Bfn.  Coefficient  Atom+Function         Bfn.  Coefficient  Atom+Function  
  ----- ------------  ---------------      ----- ------------  ---------------
     2     30.460664  1 C  s                114    -20.279345  3 O  s          
   169    -15.280816  4 O  s                  1     15.007131  1 C  s          
    53    -12.474661  1 C  fyyz              25     11.497680  1 C  dxy        
    50    -10.107307  1 C  fxyz              33     -9.186598  1 C  dyy        
   108     -8.932386  2 C  fyyz              69     -8.261699  2 C  pz         


 center of mass
 --------------
 x =  -0.05684176 y =  -0.01739973 z =   1.98927051

 moments of inertia (a.u.)
 ------------------
         847.874451226755         -63.237661307927          12.769971441266
         -63.237661307927         771.954765136201          -3.610648776551
          12.769971441266          -3.610648776551         475.423778675089

     Multipole analysis of the density
     ---------------------------------

     L   x y z        total         alpha         beta         nuclear
     -   - - -        -----         -----         ----         -------
     0   0 0 0     -1.000000    -28.000000    -28.000000     55.000000

     1   1 0 0      0.001033      1.520301      1.520301     -3.039570
     1   0 1 0      0.054487      0.502263      0.502263     -0.950038
     1   0 0 1     -0.129183    -53.305122    -53.305122    106.481060

     2   2 0 0    -31.569233    -63.667032    -63.667032     95.764831
     2   1 1 0     -2.816875    -17.263787    -17.263787     31.710699
     2   1 0 1      0.227183      6.228329      6.228329    -12.229474
     2   0 2 0    -34.968983    -84.294945    -84.294945    133.620907
     2   0 1 1      0.003964      0.075390      0.075390     -0.146815
     2   0 0 2    -36.946691   -261.706357   -261.706357    486.466024

 Line search: 
     step= 1.00 grad=-1.3D-06 hess= 1.1D-06 energy=   -525.988676 mode=accept  
 new step= 1.00                   predicted energy=   -525.988676

          --------
          Step   7
          --------


                         Geometry "geometry" -> "geometry"
                         ---------------------------------

 Output coordinates in angstroms (scale by  1.889725989 to convert to a.u.)

  No.       Tag          Charge          X              Y              Z
 ---- ---------------- ---------- -------------- -------------- --------------
    1 C                    6.0000     0.00247296     0.00137558    -0.05190866
    2 C                    6.0000    -0.04450951     0.00557053     1.54184831
    3 O                    8.0000     0.58166064     0.98432911    -0.56322479
    4 O                    8.0000    -0.54679275    -1.01296272    -0.53798560
    5 F                    9.0000     0.39986057     1.15929019     2.13146371
    6 F                    9.0000    -1.31127490    -0.19281190     2.03821512
    7 F                    9.0000     0.72972599    -1.00151679     2.07669890

      Atomic Mass 
      ----------- 

      C                 12.000000
      O                 15.994910
      F                 18.998400


 Effective nuclear repulsion energy (a.u.)     318.3494694331

            Nuclear Dipole moment (a.u.) 
            ----------------------------
        X                 Y               Z
 ---------------- ---------------- ----------------
    -3.0395699165    -0.9500384317   106.4810600596


                                 NWChem DFT Module
                                 -----------------




 Summary of "ao basis" -> "ao basis" (cartesian)
 ------------------------------------------------------------------------------
       Tag                 Description            Shells   Functions and Types
 ---------------- ------------------------------  ------  ---------------------
 C                        aug-cc-pVTZ               14       55   5s4p3d2f
 O                        aug-cc-pVTZ               14       55   5s4p3d2f
 F                        aug-cc-pVTZ               14       55   5s4p3d2f



  The DFT is already converged 

         Total DFT energy =   -525.988675566941


            General Information
            -------------------
          SCF calculation type: DFT
          Wavefunction type:  closed shell.
          No. of atoms     :     7
          No. of electrons :    56
           Alpha electrons :    28
            Beta electrons :    28
          Charge           :    -1
          Spin multiplicity:     1
          Use of symmetry is: off; symmetry adaption is: off
          Maximum number of iterations: 200
          AO basis - number of functions:   385
                     number of shells:    98
          Convergence on energy requested:  1.00D-06
          Convergence on density requested:  1.00D-05
          Convergence on gradient requested:  5.00D-04

              XC Information
              --------------
          PerdewBurkeErnzerhof Exchange Functional  1.000          
            Perdew 1991 LDA Correlation Functional  1.000 local    
           PerdewBurkeErnz. Correlation Functional  1.000 non-local

             Grid Information
             ----------------
          Grid used for XC integration:  medium    
          Radial quadrature: Mura-Knowles        
          Angular quadrature: Lebedev. 
          Tag              B.-S. Rad. Rad. Pts. Rad. Cut. Ang. Pts.
          ---              ---------- --------- --------- ---------
          C                   0.70       49          11.0       434
          O                   0.60       49          12.0       434
          F                   0.50       49          12.0       434
          Grid pruning is: on 
          Number of quadrature shells:   343
          Spatial weights used:  Erf1

          Convergence Information
          -----------------------
          Convergence aids based upon iterative change in 
          total energy or number of iterations. 
          Levelshifting, if invoked, occurs when the 
          HOMO/LUMO gap drops below (HL_TOL):  1.00D-02
          DIIS, if invoked, will attempt to extrapolate 
          using up to (NFOCK): 10 stored Fock matrices.

                    Damping(40%)  Levelshifting(0.0)       DIIS
                  --------------- ------------------- ---------------
          dE  on:    start            ASAP                start   
          dE off:  200 iters        200 iters           200 iters 


      Screening Tolerance Information
      -------------------------------
          Density screening/tol_rho:  1.00D-10
          AO Gaussian exp screening on grid/accAOfunc:  14
          CD Gaussian exp screening on grid/accCDfunc:  20
          XC Gaussian exp screening on grid/accXCfunc:  20
          Schwarz screening/accCoul:  1.00D-08



                            NWChem DFT Gradient Module
                            --------------------------



  charge          =  -1.00
  wavefunction    = closed shell



                         DFT ENERGY GRADIENTS

    atom               coordinates                        gradient
                 x          y          z           x          y          z
   1 C       0.004673   0.002599  -0.098093    0.000008  -0.000021  -0.000067
   2 C      -0.084111   0.010527   2.913671   -0.000068  -0.000172   0.000091
   3 O       1.099179   1.860112  -1.064341    0.000057  -0.000022  -0.000080
   4 O      -1.033288  -1.914222  -1.016645    0.000002   0.000091   0.000154
   5 F       0.755627   2.190741   4.027882   -0.000076  -0.000065   0.000051
   6 F      -2.477950  -0.364362   3.851668    0.000032   0.000069  -0.000040
   7 F       1.378982  -1.892592   3.924392    0.000045   0.000120  -0.000108

                 ----------------------------------------
                 |  Time  |  1-e(secs)   |  2-e(secs)   |
                 ----------------------------------------
                 |  CPU   |       0.01   |      17.66   |
                 ----------------------------------------
                 |  WALL  |       0.01   |      17.73   |
                 ----------------------------------------

  Step       Energy      Delta E   Gmax     Grms     Xrms     Xmax   Walltime
  ---- ---------------- -------- -------- -------- -------- -------- --------
@    7    -525.98867557 -2.7D-07  0.00017  0.00008  0.00068  0.00117    799.3
                                     ok       ok       ok       ok  


      ----------------------
      Optimization converged
      ----------------------


  Step       Energy      Delta E   Gmax     Grms     Xrms     Xmax   Walltime
  ---- ---------------- -------- -------- -------- -------- -------- --------
@    7    -525.98867557 -2.7D-07  0.00017  0.00008  0.00068  0.00117    799.3
                                     ok       ok       ok       ok  



                         Geometry "geometry" -> "geometry"
                         ---------------------------------

 Output coordinates in angstroms (scale by  1.889725989 to convert to a.u.)

  No.       Tag          Charge          X              Y              Z
 ---- ---------------- ---------- -------------- -------------- --------------
    1 C                    6.0000     0.00247296     0.00137558    -0.05190866
    2 C                    6.0000    -0.04450951     0.00557053     1.54184831
    3 O                    8.0000     0.58166064     0.98432911    -0.56322479
    4 O                    8.0000    -0.54679275    -1.01296272    -0.53798560
    5 F                    9.0000     0.39986057     1.15929019     2.13146371
    6 F                    9.0000    -1.31127490    -0.19281190     2.03821512
    7 F                    9.0000     0.72972599    -1.00151679     2.07669890

      Atomic Mass 
      ----------- 

      C                 12.000000
      O                 15.994910
      F                 18.998400


 Effective nuclear repulsion energy (a.u.)     318.3494694331

            Nuclear Dipole moment (a.u.) 
            ----------------------------
        X                 Y               Z
 ---------------- ---------------- ----------------
    -3.0395699165    -0.9500384317   106.4810600596

 ==============================================================================
                                internuclear distances
 ------------------------------------------------------------------------------
       center one      |      center two      | atomic units |  angstroms
 ------------------------------------------------------------------------------
    2 C                |   1 C                |     3.01308  |     1.59445
    3 O                |   1 C                |     2.36261  |     1.25024
    4 O                |   1 C                |     2.36544  |     1.25174
    5 F                |   2 C                |     2.58843  |     1.36974
    6 F                |   2 C                |     2.59824  |     1.37493
    7 F                |   2 C                |     2.60462  |     1.37831
 ------------------------------------------------------------------------------
                         number of included internuclear distances:          6
 ==============================================================================



 ==============================================================================
                                 internuclear angles
 ------------------------------------------------------------------------------
        center 1       |       center 2       |       center 3       |  degrees
 ------------------------------------------------------------------------------
    2 C                |   1 C                |   3 O                |   114.86
    2 C                |   1 C                |   4 O                |   112.17
    3 O                |   1 C                |   4 O                |   132.97
    1 C                |   2 C                |   5 F                |   115.02
    1 C                |   2 C                |   6 F                |   112.81
    1 C                |   2 C                |   7 F                |   111.68
    5 F                |   2 C                |   6 F                |   105.37
    5 F                |   2 C                |   7 F                |   105.44
    6 F                |   2 C                |   7 F                |   105.78
 ------------------------------------------------------------------------------
                            number of included internuclear angles:          9
 ==============================================================================




 Task  times  cpu:      785.0s     wall:      799.2s


                                NWChem Input Module
                                -------------------


 Summary of allocated global arrays
-----------------------------------
  No active global arrays


MA_summarize_allocated_blocks: starting scan ...
MA_summarize_allocated_blocks: scan completed: 0 heap blocks, 0 stack blocks
MA usage statistics:

	allocation statistics:
					      heap	     stack
					      ----	     -----
	current number of blocks	         0	         0
	maximum number of blocks	        24	        53
	current total bytes		         0	         0
	maximum total bytes		 268989584	  47671080
	maximum total K-bytes		    268990	     47672
	maximum total M-bytes		       269	        48


                                     CITATION
                                     --------
                Please cite the following reference when publishing
                           results obtained with NWChem:

          E. Apra, E. J. Bylaska, W. A. de Jong, N. Govind, K. Kowalski,
       T. P. Straatsma, M. Valiev, H. J. J. van Dam, Y. Alexeev, J. Anchell,
       V. Anisimov, F. W. Aquino, R. Atta-Fynn, J. Autschbach, N. P. Bauman,
     J. C. Becca, D. E. Bernholdt, K. Bhaskaran-Nair, S. Bogatko, P. Borowski,
         J. Boschen, J. Brabec, A. Bruner, E. Cauet, Y. Chen, G. N. Chuev,
      C. J. Cramer, J. Daily, M. J. O. Deegan, T. H. Dunning Jr., M. Dupuis,
   K. G. Dyall, G. I. Fann, S. A. Fischer, A. Fonari, H. Fruchtl, L. Gagliardi,
      J. Garza, N. Gawande, S. Ghosh, K. Glaesemann, A. W. Gotz, J. Hammond,
       V. Helms, E. D. Hermes, K. Hirao, S. Hirata, M. Jacquelin, L. Jensen,
   B. G. Johnson, H. Jonsson, R. A. Kendall, M. Klemm, R. Kobayashi, V. Konkov,
      S. Krishnamoorthy, M. Krishnan, Z. Lin, R. D. Lins, R. J. Littlefield,
      A. J. Logsdail, K. Lopata, W. Ma, A. V. Marenich, J. Martin del Campo,
   D. Mejia-Rodriguez, J. E. Moore, J. M. Mullin, T. Nakajima, D. R. Nascimento,
    J. A. Nichols, P. J. Nichols, J. Nieplocha, A. Otero-de-la-Roza, B. Palmer,
    A. Panyala, T. Pirojsirikul, B. Peng, R. Peverati, J. Pittner, L. Pollack,
   R. M. Richard, P. Sadayappan, G. C. Schatz, W. A. Shelton, D. W. Silverstein,
   D. M. A. Smith, T. A. Soares, D. Song, M. Swart, H. L. Taylor, G. S. Thomas,
            V. Tipparaju, D. G. Truhlar, K. Tsemekhman, T. Van Voorhis,
      A. Vazquez-Mayagoitia, P. Verma, O. Villa, A. Vishnu, K. D. Vogiatzis,
        D. Wang, J. H. Weare, M. J. Williamson, T. L. Windus, K. Wolinski,
        A. T. Wong, Q. Wu, C. Yang, Q. Yu, M. Zacharias, Z. Zhang, Y. Zhao,
                                and R. J. Harrison
                        "NWChem: Past, present, and future
                         J. Chem. Phys. 152, 184102 (2020)
                               doi:10.1063/5.0004997

                                      AUTHORS
                                      -------
  E. Apra, E. J. Bylaska, N. Govind, K. Kowalski, M. Valiev, D. Mejia-Rodriguez,
       A. Kunitsa, N. P. Bauman, A. Panyala, W. A. de Jong, T. P. Straatsma,
   H. J. J. van Dam, D. Wang, T. L. Windus, J. Hammond, J. Autschbach, A. Woods,
    K. Bhaskaran-Nair, J. Brabec, K. Lopata, S. A. Fischer, S. Krishnamoorthy,
     M. Jacquelin, W. Ma, M. Klemm, O. Villa, Y. Chen, V. Anisimov, F. Aquino,
     S. Hirata, M. T. Hackler, E. Hermes, L. Jensen, J. E. Moore, J. C. Becca,
      V. Konjkov, T. Risthaus, M. Malagoli, A. Marenich, A. Otero-de-la-Roza,
        J. Mullin, P. Nichols, R. Peverati, J. Pittner, Y. Zhao, P.-D. Fan,
        A. Fonari, M. J. Williamson, R. J. Harrison, J. R. Rehr, M. Dupuis,
     D. Silverstein, D. M. A. Smith, J. Nieplocha, V. Tipparaju, M. Krishnan,
     B. E. Van Kuiken, A. Vazquez-Mayagoitia, M. Swart, Q. Wu, T. Van Voorhis,
     A. A. Auer, M. Nooijen, L. D. Crosby, E. Brown, G. Cisneros, G. I. Fann,
   H. Fruchtl, J. Garza, K. Hirao, R. A. Kendall, J. A. Nichols, K. Tsemekhman,
    K. Wolinski, J. Anchell, D. E. Bernholdt, P. Borowski, T. Clark, D. Clerc,
   H. Dachsel, M. J. O. Deegan, K. Dyall, D. Elwood, E. Glendening, M. Gutowski,
   A. C. Hess, J. Jaffe, B. G. Johnson, J. Ju, R. Kobayashi, R. Kutteh, Z. Lin,
   R. Littlefield, X. Long, B. Meng, T. Nakajima, S. Niu, L. Pollack, M. Rosing,
   K. Glaesemann, G. Sandrone, M. Stave, H. Taylor, G. Thomas, J. H. van Lenthe,
                               A. T. Wong, Z. Zhang.

 Total times  cpu:      785.1s     wall:      799.4s
