 argument  1 = m1e/mol.nwi
                                         
                                         


             Northwest Computational Chemistry Package (NWChem) 7.2.2
             --------------------------------------------------------


                    Environmental Molecular Sciences Laboratory
                       Pacific Northwest National Laboratory
                                Richland, WA 99352

                              Copyright (c) 1994-2022
                       Pacific Northwest National Laboratory
                            Battelle Memorial Institute

             NWChem is an open-source computational chemistry package
                        distributed under the terms of the
                      Educational Community License (ECL) 2.0
             A copy of the license is included with this distribution
                              in the LICENSE.TXT file

                                  ACKNOWLEDGMENT
                                  --------------

            This software and its documentation were developed at the
            EMSL at Pacific Northwest National Laboratory, a multiprogram
            national laboratory, operated for the U.S. Department of Energy
            by Battelle under Contract Number DE-AC05-76RL01830. Support
            for this work was provided by the Department of Energy Office
            of Biological and Environmental Research, Office of Basic
            Energy Sciences, and the Office of Advanced Scientific Computing.


           Job information
           ---------------

    hostname        = r005.ib.bridges2.psc.edu
    program         = nwchem
    date            = Tue Oct  1 14:33:28 2024

    compiled        = Mon_Mar_18_17:03:37_2024
    source          = /ocean/projects/pscstaff/mmadrid/nwchem-7.2.2
    nwchem branch   = 7.2.2
    nwchem revision = 74936fb9
    ga revision     = 5.8.0
    use scalapack   = F
    input           = m1e/mol.nwi
    prefix          = dft.
    data base       = .//dft.db
    status          = startup
    nproc           =       15
    time left       =     -1s



           Memory information
           ------------------

    heap     =   67108858 doubles =    512.0 Mbytes
    stack    =   67108863 doubles =    512.0 Mbytes
    global   =  134217728 doubles =   1024.0 Mbytes (distinct from heap & stack)
    total    =  268435449 doubles =   2048.0 Mbytes
    verify   = yes
    hardfail = no 


           Directory information
           ---------------------

  0 permanent = ./
  0 scratch   = /jet/home/hmt47/nwchem_scratch/




                                NWChem Input Module
                                -------------------


  library name resolved from: environment
  library file name is: </opt/packages/nwchem/nwchem7.2.2/share/nwchem/libraries/>
  


 Summary of "ao basis" -> "" (cartesian)
 ------------------------------------------------------------------------------
       Tag                 Description            Shells   Functions and Types
 ---------------- ------------------------------  ------  ---------------------
 *                        aug-cc-pVTZ                 on all atoms 


  pbe96 is a nonlocal functional; adding pw91lda local functional. 

 Scaling coordinates for geometry "geometry" by  1.889725989
 (inverse scale =  0.529177249)



                             Geometry "geometry" -> ""
                             -------------------------

 Output coordinates in angstroms (scale by  1.889725989 to convert to a.u.)

  No.       Tag          Charge          X              Y              Z
 ---- ---------------- ---------- -------------- -------------- --------------
    1 C                    6.0000     0.00000000     0.00000000     0.00000000
    2 C                    6.0000    -0.04627100     0.01863200     1.50281800
    3 O                    8.0000     0.58066100     0.98489300    -0.57028800
    4 O                    8.0000    -0.54527800    -1.00646500    -0.56830700
    5 H                    1.0000     0.31104600     0.97923200     1.89150400
    6 H                    1.0000    -1.07671100    -0.16892500     1.83807200
    7 H                    1.0000     0.58662800    -0.79488500     1.89034700

      Atomic Mass 
      ----------- 

      C                 12.000000
      O                 15.994910
      H                  1.007825


 Effective nuclear repulsion energy (a.u.)     111.6153465637

            Nuclear Dipole moment (a.u.) 
            ----------------------------
        X                 Y               Z
 ---------------- ---------------- ----------------
    -0.3280545419    -0.0857217503    10.4465394354


            XYZ format geometry
            -------------------
     7
 geometry
 C                     0.00000000     0.00000000     0.00000000
 C                    -0.04627100     0.01863200     1.50281800
 O                     0.58066100     0.98489300    -0.57028800
 O                    -0.54527800    -1.00646500    -0.56830700
 H                     0.31104600     0.97923200     1.89150400
 H                    -1.07671100    -0.16892500     1.83807200
 H                     0.58662800    -0.79488500     1.89034700

 ==============================================================================
                                internuclear distances
 ------------------------------------------------------------------------------
       center one      |      center two      | atomic units |  angstroms
 ------------------------------------------------------------------------------
    2 C                |   1 C                |     2.84148  |     1.50365
    3 O                |   1 C                |     2.41442  |     1.27766
    4 O                |   1 C                |     2.41506  |     1.27800
    5 H                |   2 C                |     2.07139  |     1.09613
    6 H                |   2 C                |     2.07817  |     1.09972
    7 H                |   2 C                |     2.08089  |     1.10116
 ------------------------------------------------------------------------------
                         number of included internuclear distances:          6
 ==============================================================================



 ==============================================================================
                                 internuclear angles
 ------------------------------------------------------------------------------
        center 1       |       center 2       |       center 3       |  degrees
 ------------------------------------------------------------------------------
    2 C                |   1 C                |   3 O                |   116.78
    2 C                |   1 C                |   4 O                |   116.17
    3 O                |   1 C                |   4 O                |   127.05
    1 C                |   2 C                |   5 H                |   110.81
    1 C                |   2 C                |   6 H                |   109.35
    1 C                |   2 C                |   7 H                |   108.96
    5 H                |   2 C                |   6 H                |   110.29
    5 H                |   2 C                |   7 H                |   109.59
    6 H                |   2 C                |   7 H                |   107.77
 ------------------------------------------------------------------------------
                            number of included internuclear angles:          9
 ==============================================================================





                           NWChem Geometry Optimization
                           ----------------------------


 maximum gradient threshold         (gmax) =   0.000450
 rms gradient threshold             (grms) =   0.000300
 maximum cartesian step threshold   (xmax) =   0.001800
 rms cartesian step threshold       (xrms) =   0.001200
 fixed trust radius                (trust) =   0.300000
 maximum step size to saddle      (sadstp) =   0.100000
 energy precision                  (eprec) =   5.0D-06
 maximum number of steps          (nptopt) =   40
 initial hessian option           (inhess) =    0
 line search option               (linopt) =    1
 hessian update option            (modupd) =    1
 saddle point option              (modsad) =    0
 initial eigen-mode to follow     (moddir) =    0
 initial variable to follow       (vardir) =    0
 follow first negative mode     (firstneg) =    T
 apply conjugacy                    (opcg) =    F
 source of zmatrix                         =           


          -------------------
          Energy Minimization
          -------------------


 Using diagonal initial Hessian 

          --------
          Step   0
          --------


                         Geometry "geometry" -> "geometry"
                         ---------------------------------

 Output coordinates in angstroms (scale by  1.889725989 to convert to a.u.)

  No.       Tag          Charge          X              Y              Z
 ---- ---------------- ---------- -------------- -------------- --------------
    1 C                    6.0000     0.00000000     0.00000000     0.00000000
    2 C                    6.0000    -0.04627100     0.01863200     1.50281800
    3 O                    8.0000     0.58066100     0.98489300    -0.57028800
    4 O                    8.0000    -0.54527800    -1.00646500    -0.56830700
    5 H                    1.0000     0.31104600     0.97923200     1.89150400
    6 H                    1.0000    -1.07671100    -0.16892500     1.83807200
    7 H                    1.0000     0.58662800    -0.79488500     1.89034700

      Atomic Mass 
      ----------- 

      C                 12.000000
      O                 15.994910
      H                  1.007825


 Effective nuclear repulsion energy (a.u.)     111.6153465637

            Nuclear Dipole moment (a.u.) 
            ----------------------------
        X                 Y               Z
 ---------------- ---------------- ----------------
    -0.3280545419    -0.0857217503    10.4465394354


                                 NWChem DFT Module
                                 -----------------


                      Basis "ao basis" -> "ao basis" (cartesian)
                      -----
  C (Carbon)
  ----------
            Exponent  Coefficients 
       -------------- ---------------------------------------------------------
  1 S  8.23600000E+03  0.000531
  1 S  1.23500000E+03  0.004108
  1 S  2.80800000E+02  0.021087
  1 S  7.92700000E+01  0.081853
  1 S  2.55900000E+01  0.234817
  1 S  8.99700000E+00  0.434401
  1 S  3.31900000E+00  0.346129
  1 S  3.64300000E-01 -0.008983

  2 S  8.23600000E+03 -0.000113
  2 S  1.23500000E+03 -0.000878
  2 S  2.80800000E+02 -0.004540
  2 S  7.92700000E+01 -0.018133
  2 S  2.55900000E+01 -0.055760
  2 S  8.99700000E+00 -0.126895
  2 S  3.31900000E+00 -0.170352
  2 S  3.64300000E-01  0.598684

  3 S  9.05900000E-01  1.000000

  4 S  1.28500000E-01  1.000000

  5 S  4.40200000E-02  1.000000

  6 P  1.87100000E+01  0.014031
  6 P  4.13300000E+00  0.086866
  6 P  1.20000000E+00  0.290216

  7 P  3.82700000E-01  1.000000

  8 P  1.20900000E-01  1.000000

  9 P  3.56900000E-02  1.000000

 10 D  1.09700000E+00  1.000000

 11 D  3.18000000E-01  1.000000

 12 D  1.00000000E-01  1.000000

 13 F  7.61000000E-01  1.000000

 14 F  2.68000000E-01  1.000000

  O (Oxygen)
  ----------
            Exponent  Coefficients 
       -------------- ---------------------------------------------------------
  1 S  1.53300000E+04  0.000508
  1 S  2.29900000E+03  0.003929
  1 S  5.22400000E+02  0.020243
  1 S  1.47300000E+02  0.079181
  1 S  4.75500000E+01  0.230687
  1 S  1.67600000E+01  0.433118
  1 S  6.20700000E+00  0.350260
  1 S  6.88200000E-01 -0.008154

  2 S  1.53300000E+04 -0.000115
  2 S  2.29900000E+03 -0.000895
  2 S  5.22400000E+02 -0.004636
  2 S  1.47300000E+02 -0.018724
  2 S  4.75500000E+01 -0.058463
  2 S  1.67600000E+01 -0.136463
  2 S  6.20700000E+00 -0.175740
  2 S  6.88200000E-01  0.603418

  3 S  1.75200000E+00  1.000000

  4 S  2.38400000E-01  1.000000

  5 S  7.37600000E-02  1.000000

  6 P  3.44600000E+01  0.015928
  6 P  7.74900000E+00  0.099740
  6 P  2.28000000E+00  0.310492

  7 P  7.15600000E-01  1.000000

  8 P  2.14000000E-01  1.000000

  9 P  5.97400000E-02  1.000000

 10 D  2.31400000E+00  1.000000

 11 D  6.45000000E-01  1.000000

 12 D  2.14000000E-01  1.000000

 13 F  1.42800000E+00  1.000000

 14 F  5.00000000E-01  1.000000

  H (Hydrogen)
  ------------
            Exponent  Coefficients 
       -------------- ---------------------------------------------------------
  1 S  3.38700000E+01  0.006068
  1 S  5.09500000E+00  0.045308
  1 S  1.15900000E+00  0.202822

  2 S  3.25800000E-01  1.000000

  3 S  1.02700000E-01  1.000000

  4 S  2.52600000E-02  1.000000

  5 P  1.40700000E+00  1.000000

  6 P  3.88000000E-01  1.000000

  7 P  1.02000000E-01  1.000000

  8 D  1.05700000E+00  1.000000

  9 D  2.47000000E-01  1.000000



 Summary of "ao basis" -> "ao basis" (cartesian)
 ------------------------------------------------------------------------------
       Tag                 Description            Shells   Functions and Types
 ---------------- ------------------------------  ------  ---------------------
 C                        aug-cc-pVTZ               14       55   5s4p3d2f
 O                        aug-cc-pVTZ               14       55   5s4p3d2f
 H                        aug-cc-pVTZ                9       25   4s3p2d




 Summary of "ao basis" -> "ao basis" (cartesian)
 ------------------------------------------------------------------------------
       Tag                 Description            Shells   Functions and Types
 ---------------- ------------------------------  ------  ---------------------
 C                        aug-cc-pVTZ               14       55   5s4p3d2f
 O                        aug-cc-pVTZ               14       55   5s4p3d2f
 H                        aug-cc-pVTZ                9       25   4s3p2d


  Caching 1-el integrals 

            General Information
            -------------------
          SCF calculation type: DFT
          Wavefunction type:  closed shell.
          No. of atoms     :     7
          No. of electrons :    32
           Alpha electrons :    16
            Beta electrons :    16
          Charge           :    -1
          Spin multiplicity:     1
          Use of symmetry is: off; symmetry adaption is: off
          Maximum number of iterations: 200
          AO basis - number of functions:   295
                     number of shells:    83
          Convergence on energy requested:  1.00D-06
          Convergence on density requested:  1.00D-05
          Convergence on gradient requested:  5.00D-04

              XC Information
              --------------
          PerdewBurkeErnzerhof Exchange Functional  1.000          
            Perdew 1991 LDA Correlation Functional  1.000 local    
           PerdewBurkeErnz. Correlation Functional  1.000 non-local

             Grid Information
             ----------------
          Grid used for XC integration:  medium    
          Radial quadrature: Mura-Knowles        
          Angular quadrature: Lebedev. 
          Tag              B.-S. Rad. Rad. Pts. Rad. Cut. Ang. Pts.
          ---              ---------- --------- --------- ---------
          C                   0.70       49          13.0       434
          O                   0.60       49          14.0       434
          H                   0.35       45          12.0       434
          Grid pruning is: on 
          Number of quadrature shells:   331
          Spatial weights used:  Erf1

          Convergence Information
          -----------------------
          Convergence aids based upon iterative change in 
          total energy or number of iterations. 
          Levelshifting, if invoked, occurs when the 
          HOMO/LUMO gap drops below (HL_TOL):  1.00D-02
          DIIS, if invoked, will attempt to extrapolate 
          using up to (NFOCK): 10 stored Fock matrices.

                    Damping(40%)  Levelshifting(0.0)       DIIS
                  --------------- ------------------- ---------------
          dE  on:    start            0.00D+00            start   
          dE off:  200 iters          0.00D+00          200 iters 


      Screening Tolerance Information
      -------------------------------
          Density screening/tol_rho:  1.00D-10
          AO Gaussian exp screening on grid/accAOfunc:  14
          CD Gaussian exp screening on grid/accCDfunc:  20
          XC Gaussian exp screening on grid/accXCfunc:  20
          Schwarz screening/accCoul:  1.00D-08


 Forcing the number of linearly dependent vectors to be  0

      Superposition of Atomic Density Guess
      -------------------------------------

 Sum of atomic energies:        -226.40331127
   Time after variat. SCF:      0.3
   Time prior to 1st pass:      0.3

 Grid_pts file          = /jet/home/hmt47/nwchem_scratch//dft.gridpts.00
 Record size in doubles =  12289        No. of grid_pts per rec  =   3070
 Max. records in memory =      5        Max. recs in file   =  67550051

 Grid integrated density:      30.999999266516
 Requested integration accuracy:   0.10E-05

           Memory utilization after 1st SCF pass: 
           Heap Space remaining (MW):       33.49            33486810
          Stack Space remaining (MW):       67.11            67107244

   convergence    iter        energy       DeltaE   RMS-Dens  Diis-err    time
 ---------------- ----- ----------------- --------- --------- ---------  ------
 d=40,ls=0.0,diis     1   -228.7130149982 -3.40D+02  8.30D-03  3.68D+01     0.7
 Grid integrated density:      31.599998468137
 Requested integration accuracy:   0.10E-05
 d=40,ls=0.0,diis     2   -228.4857599340  2.27D-01  2.51D+00  6.09D+00     3.4
 Grid integrated density:      31.840005090052
 Requested integration accuracy:   0.10E-05
 d=40,ls=0.0,diis     3   -225.5326881728  2.95D+00  1.50D+00  8.35D+00     6.1
 Grid integrated density:      31.936001557401
 Requested integration accuracy:   0.10E-05
 d=40,ls=0.0,diis     4   -227.9477936814 -2.42D+00  6.02D-01  6.84D-01     8.8
 Grid integrated density:      31.974399892948
 Requested integration accuracy:   0.10E-05
 d=40,ls=0.0,diis     5   -228.2599108079 -3.12D-01  2.41D-01  7.60D-02    11.6
 Grid integrated density:      31.989759182001
 Requested integration accuracy:   0.10E-05
 d=40,ls=0.0,diis     6   -228.3120944011 -5.22D-02  9.62D-02  1.44D-01    14.3
 Grid integrated density:      31.995902684432
 Requested integration accuracy:   0.10E-05
  Resetting Diis
 d=40,ls=0.0,diis     7   -228.3258995578 -1.38D-02  3.84D-02  1.99D-01    18.2
 Grid integrated density:      31.998359298503
 Requested integration accuracy:   0.10E-05
 d=40,ls=0.0,diis     8   -228.3350065244 -9.11D-03  2.58D+00  1.98D-01    20.9
 Grid integrated density:      31.999343562535
 Requested integration accuracy:   0.10E-05
 d=40,ls=0.0,diis     9   -227.9299194928  4.05D-01  1.56D+00  1.65D+00    23.6
 Grid integrated density:      31.999735956874
 Requested integration accuracy:   0.10E-05
 d=40,ls=0.0,diis    10   -228.2870988478 -3.57D-01  6.25D-01  1.39D-01    26.3
 Grid integrated density:      31.999892884735
 Requested integration accuracy:   0.10E-05
 d=40,ls=0.0,diis    11   -228.3448146140 -5.77D-02  2.50D-01  2.14D-03    29.0
 Grid integrated density:      31.999955601507
 Requested integration accuracy:   0.10E-05
 d=40,ls=0.0,diis    12   -228.3573674240 -1.26D-02  9.98D-02  6.51D-03    31.7
 d=40,ls=0.0,diis    13   -228.3622684571 -4.90D-03  3.99D-02  6.89D-03    34.5
 d=40,ls=0.0,diis    14   -228.3647938730 -2.53D-03  1.59D-02  2.10D-03    37.2
 d=40,ls=0.0,diis    15   -228.3658304355 -1.04D-03  6.35D-03  5.09D-04    39.9
 d=40,ls=0.0,diis    16   -228.3662372432 -4.07D-04  2.58D-03  8.67D-05    43.5
 d=40,ls=0.0,diis    17   -228.3663938313 -1.57D-04  1.01D-03  1.94D-05    46.2
 d=40,ls=0.0,diis    18   -228.3664559900 -6.22D-05  4.09D-04  3.62D-06    49.1
 d=40,ls=0.0,diis    19   -228.3664806602 -2.47D-05  1.65D-04  6.08D-07    51.8
 d=40,ls=0.0,diis    20   -228.3664904827 -9.82D-06  6.72D-05  1.11D-07    54.5
 d=40,ls=0.0,diis    21   -228.3664944051 -3.92D-06  2.71D-05  1.73D-08    57.2
 d=40,ls=0.0,diis    22   -228.3664959731 -1.57D-06  1.09D-05  2.72D-09    59.9
 d=40,ls=0.0,diis    23   -228.3664965995 -6.26D-07  4.41D-06  4.23D-10    62.6


         Total DFT energy =     -228.366496599546
      One electron energy =     -540.495555351659
           Coulomb energy =      229.584827806713
    Exchange-Corr. energy =      -29.071115618286
 Nuclear repulsion energy =      111.615346563685

 Numeric. integr. density =       31.999997314617

     Total iterative time =     62.3s



                       DFT Final Molecular Orbital Analysis
                       ------------------------------------

 Vector    1  Occ=2.000000D+00  E=-1.849319D+01
              MO Center=  5.8D-01,  9.8D-01, -5.7D-01, r^2= 1.6D-02
   Bfn.  Coefficient  Atom+Function         Bfn.  Coefficient  Atom+Function  
  ----- ------------  ---------------      ----- ------------  ---------------
   111      0.981548  3 O  s                 59      0.149069  2 C  s          
   223     -0.110872  5 H  s                248     -0.075380  6 H  s          
   273     -0.067275  7 H  s                113      0.066870  3 O  s          
    14      0.045253  1 C  pz                88      0.043626  2 C  dyy        
    69      0.040753  2 C  pz                 4     -0.038981  1 C  s          

 Vector    2  Occ=2.000000D+00  E=-1.849168D+01
              MO Center= -5.5D-01, -1.0D+00, -5.7D-01, r^2= 1.6D-02
   Bfn.  Coefficient  Atom+Function         Bfn.  Coefficient  Atom+Function  
  ----- ------------  ---------------      ----- ------------  ---------------
   166      0.982460  4 O  s                 59     -0.117452  2 C  s          
   168      0.067566  4 O  s                 14      0.055285  1 C  pz         
   169     -0.047183  4 O  s                114      0.046057  3 O  s          
    54     -0.042849  1 C  fyzz              50      0.038608  1 C  fxyz       
    53      0.034576  1 C  fyyz              69      0.032627  2 C  pz         

 Vector    3  Occ=2.000000D+00  E=-9.762674D+00
              MO Center=  7.7D-07, -3.8D-07, -1.4D-05, r^2= 2.8D-02
   Bfn.  Coefficient  Atom+Function         Bfn.  Coefficient  Atom+Function  
  ----- ------------  ---------------      ----- ------------  ---------------
     1      1.012020  1 C  s                  2      0.083953  1 C  s          
     4     -0.068772  1 C  s                  3      0.066677  1 C  s          
   114     -0.056954  3 O  s                 59      0.052149  2 C  s          
    69     -0.050022  2 C  pz               169     -0.044706  4 O  s          
    27      0.030139  1 C  dyy               25      0.029398  1 C  dxy        

 Vector    4  Occ=2.000000D+00  E=-9.702372D+00
              MO Center= -4.6D-02,  1.9D-02,  1.5D+00, r^2= 2.8D-02
   Bfn.  Coefficient  Atom+Function         Bfn.  Coefficient  Atom+Function  
  ----- ------------  ---------------      ----- ------------  ---------------
    56      1.014336  2 C  s                 57      0.089375  2 C  s          
    58      0.066964  2 C  s                 59     -0.034669  2 C  s          
   223     -0.025476  5 H  s          

 Vector    5  Occ=2.000000D+00  E=-7.220173D-01
              MO Center=  1.5D-02,  3.7D-04, -3.5D-01, r^2= 1.2D+00
   Bfn.  Coefficient  Atom+Function         Bfn.  Coefficient  Atom+Function  
  ----- ------------  ---------------      ----- ------------  ---------------
   112      0.284104  3 O  s                167      0.280342  4 O  s          
     2      0.273601  1 C  s                169      0.162320  4 O  s          
   114      0.158521  3 O  s                 59      0.112487  2 C  s          
   170      0.085771  4 O  s                115      0.082723  3 O  s          
   113      0.080210  3 O  s                168      0.079195  4 O  s          

 Vector    6  Occ=2.000000D+00  E=-6.398679D-01
              MO Center=  9.3D-03, -1.3D-02, -4.0D-01, r^2= 1.4D+00
   Bfn.  Coefficient  Atom+Function         Bfn.  Coefficient  Atom+Function  
  ----- ------------  ---------------      ----- ------------  ---------------
   167     -0.335964  4 O  s                112      0.334280  3 O  s          
   114      0.284192  3 O  s                169     -0.282935  4 O  s          
     7      0.137537  1 C  py               168     -0.092911  4 O  s          
   113      0.092339  3 O  s                  6      0.077775  1 C  px         
    10      0.056694  1 C  py               172     -0.044150  4 O  py         

 Vector    7  Occ=2.000000D+00  E=-4.714416D-01
              MO Center= -4.2D-02, -6.9D-04,  1.3D+00, r^2= 1.3D+00
   Bfn.  Coefficient  Atom+Function         Bfn.  Coefficient  Atom+Function  
  ----- ------------  ---------------      ----- ------------  ---------------
    57      0.393085  2 C  s                 59      0.347413  2 C  s          
     8      0.106330  1 C  pz                58      0.097804  2 C  s          
   167     -0.096358  4 O  s                112     -0.092399  3 O  s          
   247      0.088559  6 H  s                272      0.088748  7 H  s          
    11      0.082608  1 C  pz               222      0.082058  5 H  s          

 Vector    8  Occ=2.000000D+00  E=-2.536433D-01
              MO Center= -1.6D-02,  8.8D-03,  6.0D-01, r^2= 2.5D+00
   Bfn.  Coefficient  Atom+Function         Bfn.  Coefficient  Atom+Function  
  ----- ------------  ---------------      ----- ------------  ---------------
     2      0.280911  1 C  s                  4      0.219242  1 C  s          
    63     -0.189714  2 C  pz               169     -0.161098  4 O  s          
    66     -0.159231  2 C  pz               112     -0.158346  3 O  s          
   167     -0.157101  4 O  s                114     -0.131143  3 O  s          
     8      0.105505  1 C  pz                11      0.098651  1 C  pz         

 Vector    9  Occ=2.000000D+00  E=-2.076980D-01
              MO Center= -5.0D-02, -1.7D-01,  1.2D+00, r^2= 1.8D+00
   Bfn.  Coefficient  Atom+Function         Bfn.  Coefficient  Atom+Function  
  ----- ------------  ---------------      ----- ------------  ---------------
    61      0.200763  2 C  px               272      0.186385  7 H  s          
    64      0.169610  2 C  px               247     -0.152919  6 H  s          
   271      0.136582  7 H  s                 62     -0.115971  2 C  py         
   246     -0.112444  6 H  s                  6      0.111473  1 C  px         
    65     -0.097609  2 C  py                 9      0.092122  1 C  px         

 Vector   10  Occ=2.000000D+00  E=-1.967201D-01
              MO Center= -3.2D-02,  1.9D-01,  1.2D+00, r^2= 2.2D+00
   Bfn.  Coefficient  Atom+Function         Bfn.  Coefficient  Atom+Function  
  ----- ------------  ---------------      ----- ------------  ---------------
    62      0.208183  2 C  py               222      0.185930  5 H  s          
    65      0.182776  2 C  py                59      0.155767  2 C  s          
   221      0.150353  5 H  s                247     -0.124743  6 H  s          
    61      0.120005  2 C  px                64      0.105084  2 C  px         
   246     -0.097768  6 H  s                167      0.091274  4 O  s          

 Vector   11  Occ=2.000000D+00  E=-1.710263D-01
              MO Center=  3.1D-02,  4.0D-02, -1.5D-01, r^2= 2.4D+00
   Bfn.  Coefficient  Atom+Function         Bfn.  Coefficient  Atom+Function  
  ----- ------------  ---------------      ----- ------------  ---------------
     8      0.202719  1 C  pz               117      0.166415  3 O  py         
    11      0.164073  1 C  pz               172     -0.158470  4 O  py         
   120      0.157533  3 O  py               175     -0.148212  4 O  py         
   114      0.145216  3 O  s                169      0.140423  4 O  s          
   112      0.133453  3 O  s                 63     -0.126417  2 C  pz         

 Vector   12  Occ=2.000000D+00  E=-1.333828D-01
              MO Center= -1.5D-02,  3.3D-03, -1.8D-01, r^2= 2.8D+00
   Bfn.  Coefficient  Atom+Function         Bfn.  Coefficient  Atom+Function  
  ----- ------------  ---------------      ----- ------------  ---------------
     7      0.170460  1 C  py               172     -0.159033  4 O  py         
   223     -0.154655  5 H  s                175     -0.152533  4 O  py         
   117     -0.147057  3 O  py               120     -0.141027  3 O  py         
   173     -0.120144  4 O  pz                59      0.117754  2 C  s          
   118      0.118328  3 O  pz               176     -0.116981  4 O  pz         

 Vector   13  Occ=2.000000D+00  E=-1.131650D-01
              MO Center=  6.0D-03, -3.8D-02,  9.1D-02, r^2= 2.4D+00
   Bfn.  Coefficient  Atom+Function         Bfn.  Coefficient  Atom+Function  
  ----- ------------  ---------------      ----- ------------  ---------------
     6      0.168010  1 C  px               116      0.162668  3 O  px         
   119      0.159387  3 O  px               171      0.155929  4 O  px         
   174      0.152725  4 O  px                 9      0.140164  1 C  px         
   122      0.110064  3 O  px               272     -0.109088  7 H  s          
   273     -0.107353  7 H  s                177      0.105603  4 O  px         

 Vector   14  Occ=2.000000D+00  E=-1.152419D-02
              MO Center=  2.3D-03, -4.0D-02, -5.3D-01, r^2= 2.0D+00
   Bfn.  Coefficient  Atom+Function         Bfn.  Coefficient  Atom+Function  
  ----- ------------  ---------------      ----- ------------  ---------------
   171     -0.235676  4 O  px               174     -0.235718  4 O  px         
   116      0.231857  3 O  px               119      0.231968  3 O  px         
   177     -0.163341  4 O  px               122      0.159911  3 O  px         
   172      0.136752  4 O  py               175      0.136662  4 O  py         
   117     -0.127583  3 O  py               120     -0.127698  3 O  py         

 Vector   15  Occ=2.000000D+00  E= 2.599948D-03
              MO Center= -5.0D-03, -3.5D-02, -3.1D-01, r^2= 2.6D+00
   Bfn.  Coefficient  Atom+Function         Bfn.  Coefficient  Atom+Function  
  ----- ------------  ---------------      ----- ------------  ---------------
    60      0.291999  2 C  s                173     -0.246059  4 O  pz         
   176     -0.242958  4 O  pz               118     -0.239232  3 O  pz         
   121     -0.239742  3 O  pz                 5     -0.237137  1 C  s          
   179     -0.174625  4 O  pz               124     -0.156392  3 O  pz         
    63     -0.135386  2 C  pz                66     -0.122033  2 C  pz         

 Vector   16  Occ=2.000000D+00  E= 1.777712D-02
              MO Center=  2.9D-02,  2.7D-02, -4.4D-01, r^2= 2.3D+00
   Bfn.  Coefficient  Atom+Function         Bfn.  Coefficient  Atom+Function  
  ----- ------------  ---------------      ----- ------------  ---------------
   118      0.216365  3 O  pz               121      0.214849  3 O  pz         
   173     -0.206874  4 O  pz               176     -0.205263  4 O  pz         
   248      0.187676  6 H  s                 59     -0.178025  2 C  s          
   124      0.162657  3 O  pz               120      0.160525  3 O  py         
   179     -0.161051  4 O  pz               117      0.158108  3 O  py         

 Vector   17  Occ=0.000000D+00  E= 9.699692D-02
              MO Center= -9.0D-02, -2.9D-02,  3.3D+00, r^2= 1.5D+01
   Bfn.  Coefficient  Atom+Function         Bfn.  Coefficient  Atom+Function  
  ----- ------------  ---------------      ----- ------------  ---------------
    59     10.917466  2 C  s                 60     -7.633869  2 C  s          
   248     -3.859017  6 H  s                273     -3.797133  7 H  s          
     4     -3.760108  1 C  s                223     -3.451920  5 H  s          
    88      2.870993  2 C  dyy               85      2.802837  2 C  dxx        
    90      2.591526  2 C  dzz              170      1.313255  4 O  s          

 Vector   18  Occ=0.000000D+00  E= 1.190348D-01
              MO Center=  1.2D-01, -1.2D+00,  2.6D+00, r^2= 2.0D+01
   Bfn.  Coefficient  Atom+Function         Bfn.  Coefficient  Atom+Function  
  ----- ------------  ---------------      ----- ------------  ---------------
   274      5.949125  7 H  s                273      4.656477  7 H  s          
   249     -4.185221  6 H  s                248     -3.336083  6 H  s          
    67     -2.778257  2 C  px                68      2.021121  2 C  py         
   224     -1.841534  5 H  s                 70     -1.820299  2 C  px         
    71      1.485662  2 C  py                 5     -1.143843  1 C  s          

 Vector   19  Occ=0.000000D+00  E= 1.202133D-01
              MO Center= -3.2D-01,  1.4D+00,  2.7D+00, r^2= 2.1D+01
   Bfn.  Coefficient  Atom+Function         Bfn.  Coefficient  Atom+Function  
  ----- ------------  ---------------      ----- ------------  ---------------
   224      6.425154  5 H  s                249     -4.706939  6 H  s          
   223      4.079846  5 H  s                248     -3.195015  6 H  s          
    68     -2.818385  2 C  py                71     -2.291246  2 C  py         
    67     -2.111557  2 C  px                 5      1.887024  1 C  s          
   274     -1.645587  7 H  s                 70     -1.624043  2 C  px         

 Vector   20  Occ=0.000000D+00  E= 1.429951D-01
              MO Center= -1.0D-03,  7.9D-02,  4.0D-01, r^2= 2.1D+01
   Bfn.  Coefficient  Atom+Function         Bfn.  Coefficient  Atom+Function  
  ----- ------------  ---------------      ----- ------------  ---------------
     5     20.550892  1 C  s                 60    -16.857213  2 C  s          
    59     10.110342  2 C  s                 72      5.658612  2 C  pz         
   223     -4.675045  5 H  s                 17      4.301305  1 C  pz         
   248     -4.052477  6 H  s                273     -4.018942  7 H  s          
    85      2.865346  2 C  dxx               88      2.859351  2 C  dyy        

 Vector   21  Occ=0.000000D+00  E= 1.757573D-01
              MO Center=  2.4D-02,  1.1D-01, -3.4D-01, r^2= 2.1D+01
   Bfn.  Coefficient  Atom+Function         Bfn.  Coefficient  Atom+Function  
  ----- ------------  ---------------      ----- ------------  ---------------
    59     12.026198  2 C  s                 60    -10.179879  2 C  s          
     4     -8.061982  1 C  s                 17      4.496203  1 C  pz         
   223     -4.413377  5 H  s                 90      3.398446  2 C  dzz        
   115      3.346423  3 O  s                 69     -3.110776  2 C  pz         
    88      3.046543  2 C  dyy              170      2.714059  4 O  s          

 Vector   22  Occ=0.000000D+00  E= 1.809565D-01
              MO Center= -2.7D-02, -8.3D-02, -4.9D-01, r^2= 1.9D+01
   Bfn.  Coefficient  Atom+Function         Bfn.  Coefficient  Atom+Function  
  ----- ------------  ---------------      ----- ------------  ---------------
    59      5.470959  2 C  s                223     -5.413757  5 H  s          
    16     -4.074018  1 C  py               115      3.909884  3 O  s          
   170     -3.881821  4 O  s                 71      2.505618  2 C  py         
    15     -2.175165  1 C  px               273     -1.594462  7 H  s          
    70      1.360162  2 C  px                85      1.233293  2 C  dxx        

 Vector   23  Occ=0.000000D+00  E= 1.857869D-01
              MO Center=  2.4D-02,  2.1D-01,  2.2D+00, r^2= 1.7D+01
   Bfn.  Coefficient  Atom+Function         Bfn.  Coefficient  Atom+Function  
  ----- ------------  ---------------      ----- ------------  ---------------
    59     23.542167  2 C  s                 60    -11.342077  2 C  s          
     4     -9.594739  1 C  s                248     -8.542287  6 H  s          
   273     -8.309421  7 H  s                223     -6.302324  5 H  s          
    85      5.962371  2 C  dxx               88      5.813555  2 C  dyy        
    90      5.640884  2 C  dzz                5     -4.686721  1 C  s          

 Vector   24  Occ=0.000000D+00  E= 1.877599D-01
              MO Center=  6.0D-02, -8.8D-02, -1.8D-02, r^2= 1.8D+01
   Bfn.  Coefficient  Atom+Function         Bfn.  Coefficient  Atom+Function  
  ----- ------------  ---------------      ----- ------------  ---------------
   248      4.437196  6 H  s                 59     -3.903731  2 C  s          
    70      3.695422  2 C  px                15     -3.443065  1 C  px         
    67      2.532349  2 C  px               223      2.268306  5 H  s          
   274     -2.144237  7 H  s                 71     -2.008728  2 C  py         
    16      1.889835  1 C  py               249      1.822180  6 H  s          

 Vector   25  Occ=0.000000D+00  E= 1.933229D-01
              MO Center= -7.2D-02, -1.0D-01,  1.3D+00, r^2= 1.5D+01
   Bfn.  Coefficient  Atom+Function         Bfn.  Coefficient  Atom+Function  
  ----- ------------  ---------------      ----- ------------  ---------------
   273      9.986562  7 H  s                274      6.326449  7 H  s          
   248     -6.286609  6 H  s                 67     -5.482012  2 C  px         
   249     -4.157178  6 H  s                 68      3.997812  2 C  py         
    70     -2.819353  2 C  px                71      2.699279  2 C  py         
    86      2.345885  2 C  dxy              224     -1.979640  5 H  s          

 Vector   26  Occ=0.000000D+00  E= 1.950994D-01
              MO Center= -3.2D-01, -8.3D-01,  2.1D+00, r^2= 1.7D+01
   Bfn.  Coefficient  Atom+Function         Bfn.  Coefficient  Atom+Function  
  ----- ------------  ---------------      ----- ------------  ---------------
   223      7.427369  5 H  s                224      6.841351  5 H  s          
   249     -5.721635  6 H  s                 71     -5.164656  2 C  py         
    59     -5.006509  2 C  s                170     -4.996421  4 O  s          
     4      4.558862  1 C  s                 68     -4.301541  2 C  py         
   248     -3.797753  6 H  s                 67     -3.667805  2 C  px         

 Vector   27  Occ=0.000000D+00  E= 2.020958D-01
              MO Center=  2.1D-02,  3.5D-01,  7.1D-01, r^2= 7.5D+00
   Bfn.  Coefficient  Atom+Function         Bfn.  Coefficient  Atom+Function  
  ----- ------------  ---------------      ----- ------------  ---------------
   248     -2.703074  6 H  s                 59      2.667149  2 C  s          
   274      2.600679  7 H  s                 70     -2.356313  2 C  px         
     4     -2.295664  1 C  s                273      2.052884  7 H  s          
   249     -2.037907  6 H  s                 67     -2.011457  2 C  px         
    60     -1.270941  2 C  s                 71      1.202446  2 C  py         

 Vector   28  Occ=0.000000D+00  E= 2.377984D-01
              MO Center=  3.1D-01,  6.8D-01,  6.3D-01, r^2= 1.5D+01
   Bfn.  Coefficient  Atom+Function         Bfn.  Coefficient  Atom+Function  
  ----- ------------  ---------------      ----- ------------  ---------------
    59    -15.647897  2 C  s                  4     15.477039  1 C  s          
   273      6.598714  7 H  s                 35      5.906253  1 C  dzz        
   115     -5.886407  3 O  s                248      5.756751  6 H  s          
   170     -5.673104  4 O  s                 68      5.320150  2 C  py         
   223     -4.978277  5 H  s                 14      4.500399  1 C  pz         

 Vector   29  Occ=0.000000D+00  E= 2.427208D-01
              MO Center= -4.4D-02,  1.7D-02,  1.1D-01, r^2= 1.8D+01
   Bfn.  Coefficient  Atom+Function         Bfn.  Coefficient  Atom+Function  
  ----- ------------  ---------------      ----- ------------  ---------------
     5     45.731893  1 C  s                 60    -34.769980  2 C  s          
   115     -9.826858  3 O  s                170     -9.851973  4 O  s          
    59      8.502934  2 C  s                 72      8.092137  2 C  pz         
    17      7.815072  1 C  pz                 4      5.276120  1 C  s          
   248     -3.381559  6 H  s                 85      3.325700  2 C  dxx        

 Vector   30  Occ=0.000000D+00  E= 2.519695D-01
              MO Center= -3.4D-01, -2.9D-01,  9.1D-01, r^2= 1.1D+01
   Bfn.  Coefficient  Atom+Function         Bfn.  Coefficient  Atom+Function  
  ----- ------------  ---------------      ----- ------------  ---------------
   273     -6.776054  7 H  s                  5      6.414125  1 C  s          
   248      6.093595  6 H  s                 59      5.911535  2 C  s          
    60     -5.806509  2 C  s                 67      4.905701  2 C  px         
     4     -4.400556  1 C  s                249      3.081690  6 H  s          
   274     -2.888851  7 H  s                256      2.196340  6 H  px         

 Vector   31  Occ=0.000000D+00  E= 2.666852D-01
              MO Center=  1.0D-01,  6.3D-02,  5.9D-01, r^2= 1.3D+01
   Bfn.  Coefficient  Atom+Function         Bfn.  Coefficient  Atom+Function  
  ----- ------------  ---------------      ----- ------------  ---------------
    59     17.047328  2 C  s                  4    -11.873502  1 C  s          
    60    -10.442347  2 C  s                  5     10.002706  1 C  s          
   115      6.624070  3 O  s                223     -6.499015  5 H  s          
   170      5.563246  4 O  s                 35     -5.174107  1 C  dzz        
   248     -4.875301  6 H  s                 33     -4.784752  1 C  dyy        

 Vector   32  Occ=0.000000D+00  E= 2.872174D-01
              MO Center=  6.3D-02,  9.4D-02, -6.9D-01, r^2= 1.4D+01
   Bfn.  Coefficient  Atom+Function         Bfn.  Coefficient  Atom+Function  
  ----- ------------  ---------------      ----- ------------  ---------------
   223     -6.307332  5 H  s                 68      6.067937  2 C  py         
    34     -3.952971  1 C  dyz               13     -3.542548  1 C  py         
    67      3.177540  2 C  px               248      3.174938  6 H  s          
   182     -2.616178  4 O  pz               127      2.416615  3 O  pz         
    16      2.294958  1 C  py                32     -2.221025  1 C  dxz        

 Vector   33  Occ=0.000000D+00  E= 2.884483D-01
              MO Center= -3.5D-02, -1.8D-01,  1.6D-02, r^2= 1.3D+01
   Bfn.  Coefficient  Atom+Function         Bfn.  Coefficient  Atom+Function  
  ----- ------------  ---------------      ----- ------------  ---------------
   248      2.791669  6 H  s                 59     -2.252438  2 C  s          
   256      1.894001  6 H  px               180     -1.855404  4 O  px         
    88     -1.787474  2 C  dyy               86      1.765863  2 C  dxy        
    67      1.626278  2 C  px                33      1.569468  1 C  dyy        
   273      1.407787  7 H  s                 31     -1.392012  1 C  dxy        

 Vector   34  Occ=0.000000D+00  E= 2.963183D-01
              MO Center=  9.3D-02,  2.2D-01,  1.1D+00, r^2= 1.3D+01
   Bfn.  Coefficient  Atom+Function         Bfn.  Coefficient  Atom+Function  
  ----- ------------  ---------------      ----- ------------  ---------------
    59     30.091535  2 C  s                248    -18.479394  6 H  s          
   273    -16.660647  7 H  s                 69     12.115479  2 C  pz         
   223    -10.415592  5 H  s                 60     -7.812217  2 C  s          
     4      7.491672  1 C  s                 85      7.204159  2 C  dxx        
    88      7.013871  2 C  dyy               14      4.840306  1 C  pz         

 Vector   35  Occ=0.000000D+00  E= 3.089724D-01
              MO Center= -1.6D-01, -2.5D-01,  2.5D-01, r^2= 1.5D+01
   Bfn.  Coefficient  Atom+Function         Bfn.  Coefficient  Atom+Function  
  ----- ------------  ---------------      ----- ------------  ---------------
    59     13.987172  2 C  s                  4    -11.886828  1 C  s          
    69     -7.095094  2 C  pz               248     -6.682588  6 H  s          
   170      6.005018  4 O  s                 34     -5.392701  1 C  dyz        
    60     -4.863590  2 C  s                115     -4.622594  3 O  s          
   273     -4.543784  7 H  s                181      4.285120  4 O  py         

 Vector   36  Occ=0.000000D+00  E= 3.324397D-01
              MO Center= -1.2D-01,  1.9D-01, -1.2D+00, r^2= 1.3D+01
   Bfn.  Coefficient  Atom+Function         Bfn.  Coefficient  Atom+Function  
  ----- ------------  ---------------      ----- ------------  ---------------
    59     26.773279  2 C  s                 60    -13.558643  2 C  s          
   223    -11.993294  5 H  s                  5     10.318787  1 C  s          
   248     -7.906945  6 H  s                 17      7.121326  1 C  pz         
    88      5.620192  2 C  dyy              273     -5.461275  7 H  s          
    90      4.764313  2 C  dzz               85      4.468904  2 C  dxx        

 Vector   37  Occ=0.000000D+00  E= 3.330709D-01
              MO Center=  2.1D-01, -6.9D-02, -5.8D-01, r^2= 1.3D+01
   Bfn.  Coefficient  Atom+Function         Bfn.  Coefficient  Atom+Function  
  ----- ------------  ---------------      ----- ------------  ---------------
    59      8.801568  2 C  s                  4     -5.863381  1 C  s          
   248     -5.415710  6 H  s                 15      3.472227  1 C  px         
   223     -2.757500  5 H  s                 17     -2.730829  1 C  pz         
   125     -2.668103  3 O  px               115      2.577255  3 O  s          
   180     -2.284742  4 O  px                 5     -2.261353  1 C  s          

 Vector   38  Occ=0.000000D+00  E= 3.459822D-01
              MO Center= -8.7D-02, -3.3D-01,  1.7D+00, r^2= 9.9D+00
   Bfn.  Coefficient  Atom+Function         Bfn.  Coefficient  Atom+Function  
  ----- ------------  ---------------      ----- ------------  ---------------
    86      4.828245  2 C  dxy               87      4.346234  2 C  dxz        
   283     -3.146021  7 H  pz               231     -2.977796  5 H  px         
   258      2.724673  6 H  pz                70      2.661373  2 C  px         
    89     -2.369999  2 C  dyz              257      2.155299  6 H  py         
     4      1.899885  1 C  s                 85      1.766215  2 C  dxx        

 Vector   39  Occ=0.000000D+00  E= 3.574069D-01
              MO Center=  2.2D-01,  6.3D-01,  1.0D+00, r^2= 1.3D+01
   Bfn.  Coefficient  Atom+Function         Bfn.  Coefficient  Atom+Function  
  ----- ------------  ---------------      ----- ------------  ---------------
   223     11.716729  5 H  s                115     -6.862580  3 O  s          
    68     -5.025991  2 C  py                71     -4.886143  2 C  py         
    89     -4.810764  2 C  dyz              248     -4.298280  6 H  s          
   224      3.453382  5 H  s                 16      3.386341  1 C  py         
    87     -2.902999  2 C  dxz               34     -2.884860  1 C  dyz        

 Vector   40  Occ=0.000000D+00  E= 3.635120D-01
              MO Center= -8.4D-02, -1.3D-01,  1.9D+00, r^2= 1.3D+01
   Bfn.  Coefficient  Atom+Function         Bfn.  Coefficient  Atom+Function  
  ----- ------------  ---------------      ----- ------------  ---------------
    59     53.628042  2 C  s                 60    -25.197751  2 C  s          
     4    -21.809012  1 C  s                223    -19.907808  5 H  s          
   273    -13.870887  7 H  s                248    -12.858768  6 H  s          
    90     12.217545  2 C  dzz               88     11.421171  2 C  dyy        
    85     11.003233  2 C  dxx              115      8.410256  3 O  s          

 Vector   41  Occ=0.000000D+00  E= 3.791681D-01
              MO Center= -3.5D-01, -6.7D-01,  1.1D+00, r^2= 1.2D+01
   Bfn.  Coefficient  Atom+Function         Bfn.  Coefficient  Atom+Function  
  ----- ------------  ---------------      ----- ------------  ---------------
    60    -10.719020  2 C  s                  5      9.841092  1 C  s          
    68      7.983497  2 C  py               170      6.260664  4 O  s          
   273      5.843965  7 H  s                115     -5.671198  3 O  s          
   224     -4.619167  5 H  s                  4     -4.514183  1 C  s          
    71      4.291144  2 C  py                59      4.040774  2 C  s          

 Vector   42  Occ=0.000000D+00  E= 3.851705D-01
              MO Center=  1.5D-01,  3.3D-01,  1.6D+00, r^2= 1.1D+01
   Bfn.  Coefficient  Atom+Function         Bfn.  Coefficient  Atom+Function  
  ----- ------------  ---------------      ----- ------------  ---------------
   248     15.244461  6 H  s                 67     14.745328  2 C  px         
   273    -14.703932  7 H  s                 68     -6.385436  2 C  py         
     5     -5.730528  1 C  s                 70      5.508497  2 C  px         
    86     -5.205477  2 C  dxy              249      4.845253  6 H  s          
    59     -4.475463  2 C  s                 60      4.249532  2 C  s          

 Vector   43  Occ=0.000000D+00  E= 3.979158D-01
              MO Center= -2.6D-01, -4.5D-01,  2.9D-03, r^2= 1.2D+01
   Bfn.  Coefficient  Atom+Function         Bfn.  Coefficient  Atom+Function  
  ----- ------------  ---------------      ----- ------------  ---------------
     5     36.439090  1 C  s                170    -21.823326  4 O  s          
    60    -20.883086  2 C  s                115    -15.361157  3 O  s          
   248     10.849646  6 H  s                 14     -8.636885  1 C  pz         
     4      7.855605  1 C  s                 69     -7.000749  2 C  pz         
    33      6.645793  1 C  dyy               17      6.125619  1 C  pz         

 Vector   44  Occ=0.000000D+00  E= 4.135066D-01
              MO Center= -7.2D-02, -3.2D-02,  1.3D+00, r^2= 1.0D+01
   Bfn.  Coefficient  Atom+Function         Bfn.  Coefficient  Atom+Function  
  ----- ------------  ---------------      ----- ------------  ---------------
   248      6.996606  6 H  s                273     -5.553173  7 H  s          
   223     -5.184842  5 H  s                170     -4.922927  4 O  s          
    60     -4.693857  2 C  s                  5      4.132435  1 C  s          
    14     -3.866246  1 C  pz                67      3.653731  2 C  px         
   115     -3.170292  3 O  s                 59      2.460791  2 C  s          

 Vector   45  Occ=0.000000D+00  E= 4.158923D-01
              MO Center= -9.1D-02, -3.0D-01,  1.2D+00, r^2= 1.1D+01
   Bfn.  Coefficient  Atom+Function         Bfn.  Coefficient  Atom+Function  
  ----- ------------  ---------------      ----- ------------  ---------------
     5     13.638057  1 C  s                273    -12.013498  7 H  s          
    59     11.834012  2 C  s                 68    -11.657767  2 C  py         
    60    -11.518759  2 C  s                223      8.126252  5 H  s          
   248     -6.471822  6 H  s                 33     -4.138966  1 C  dyy        
     4     -3.970035  1 C  s                 30     -3.842962  1 C  dxx        

 Vector   46  Occ=0.000000D+00  E= 4.255591D-01
              MO Center=  2.3D-01,  8.0D-01,  1.7D+00, r^2= 9.4D+00
   Bfn.  Coefficient  Atom+Function         Bfn.  Coefficient  Atom+Function  
  ----- ------------  ---------------      ----- ------------  ---------------
     4     13.500121  1 C  s                 60     11.289528  2 C  s          
   273     10.012830  7 H  s                 59     -9.589436  2 C  s          
    14      7.315568  1 C  pz                88     -7.055796  2 C  dyy        
    90     -7.039165  2 C  dzz               69      6.765875  2 C  pz         
   248      6.658540  6 H  s                  5     -6.570890  1 C  s          

 Vector   47  Occ=0.000000D+00  E= 4.370290D-01
              MO Center=  1.5D-01, -1.2D-01,  1.8D+00, r^2= 9.3D+00
   Bfn.  Coefficient  Atom+Function         Bfn.  Coefficient  Atom+Function  
  ----- ------------  ---------------      ----- ------------  ---------------
   223     18.074471  5 H  s                273     15.648980  7 H  s          
    59    -13.462006  2 C  s                 67    -13.383059  2 C  px         
   248    -11.416017  6 H  s                115     -6.319628  3 O  s          
    69     -5.480978  2 C  pz                14     -5.162624  1 C  pz         
    68     -5.134957  2 C  py                86     -5.031168  2 C  dxy        

 Vector   48  Occ=0.000000D+00  E= 4.426732D-01
              MO Center= -4.6D-01,  3.8D-01,  1.1D+00, r^2= 1.1D+01
   Bfn.  Coefficient  Atom+Function         Bfn.  Coefficient  Atom+Function  
  ----- ------------  ---------------      ----- ------------  ---------------
    59     17.530464  2 C  s                223    -16.022474  5 H  s          
   248    -15.837802  6 H  s                115      9.364180  3 O  s          
    68      8.434970  2 C  py                88      6.719356  2 C  dyy        
   256     -6.605650  6 H  px                69      5.849291  2 C  pz         
    14      5.473089  1 C  pz                13     -4.801303  1 C  py         

 Vector   49  Occ=0.000000D+00  E= 4.566869D-01
              MO Center=  4.1D-02, -1.2D-01,  1.1D+00, r^2= 9.4D+00
   Bfn.  Coefficient  Atom+Function         Bfn.  Coefficient  Atom+Function  
  ----- ------------  ---------------      ----- ------------  ---------------
   223     16.429399  5 H  s                273    -13.978438  7 H  s          
     5    -12.471955  1 C  s                 60     10.409439  2 C  s          
    68    -10.253124  2 C  py                 4      5.303580  1 C  s          
   232     -4.878511  5 H  py               170     -4.510580  4 O  s          
    30      4.358613  1 C  dxx              282     -4.266144  7 H  py         

 Vector   50  Occ=0.000000D+00  E= 4.779570D-01
              MO Center= -2.3D-01,  1.4D-01,  1.0D+00, r^2= 1.1D+01
   Bfn.  Coefficient  Atom+Function         Bfn.  Coefficient  Atom+Function  
  ----- ------------  ---------------      ----- ------------  ---------------
     4     23.488168  1 C  s                 14     11.313010  1 C  pz         
    59     -9.360129  2 C  s                273     -8.873523  7 H  s          
    69      8.315745  2 C  pz                90     -7.391690  2 C  dzz        
   115     -6.865601  3 O  s                  5      6.660838  1 C  s          
    35      6.587977  1 C  dzz               60     -5.169217  2 C  s          

 Vector   51  Occ=0.000000D+00  E= 4.886810D-01
              MO Center=  3.3D-01, -1.1D-01,  1.0D+00, r^2= 1.0D+01
   Bfn.  Coefficient  Atom+Function         Bfn.  Coefficient  Atom+Function  
  ----- ------------  ---------------      ----- ------------  ---------------
   273    -35.955138  7 H  s                 59     33.199409  2 C  s          
     4    -11.892749  1 C  s                 60     -9.370868  2 C  s          
    86     -9.157331  2 C  dxy                5      8.434828  1 C  s          
   248      8.150385  6 H  s                 68     -8.046281  2 C  py         
    67      7.743945  2 C  px                90      7.741595  2 C  dzz        

 Vector   52  Occ=0.000000D+00  E= 4.942463D-01
              MO Center=  2.1D-01, -1.3D-02,  7.1D-01, r^2= 9.9D+00
   Bfn.  Coefficient  Atom+Function         Bfn.  Coefficient  Atom+Function  
  ----- ------------  ---------------      ----- ------------  ---------------
   248    -36.766032  6 H  s                 59     34.543985  2 C  s          
    67    -13.052270  2 C  px                 5     12.971483  1 C  s          
    60    -12.546274  2 C  s                 85     12.175836  2 C  dxx        
   256     -8.782626  6 H  px                35     -6.955323  1 C  dzz        
     4     -5.810083  1 C  s                 14     -5.294976  1 C  pz         

 Vector   53  Occ=0.000000D+00  E= 4.987674D-01
              MO Center= -1.2D-01,  1.6D-01,  7.3D-01, r^2= 1.0D+01
   Bfn.  Coefficient  Atom+Function         Bfn.  Coefficient  Atom+Function  
  ----- ------------  ---------------      ----- ------------  ---------------
   223     15.503242  5 H  s                  5     10.091610  1 C  s          
    59     -9.183949  2 C  s                 68     -8.624434  2 C  py         
     4      8.138125  1 C  s                 60     -7.041477  2 C  s          
    90     -6.059227  2 C  dzz               86     -5.737808  2 C  dxy        
    32     -4.563301  1 C  dxz               87     -4.533998  2 C  dxz        

 Vector   54  Occ=0.000000D+00  E= 5.178396D-01
              MO Center= -1.8D-01, -2.9D-01,  7.1D-01, r^2= 1.0D+01
   Bfn.  Coefficient  Atom+Function         Bfn.  Coefficient  Atom+Function  
  ----- ------------  ---------------      ----- ------------  ---------------
   223     36.747009  5 H  s                  4    -28.316827  1 C  s          
    69    -19.771392  2 C  pz                 5    -17.750845  1 C  s          
    14    -13.545355  1 C  pz                68    -11.341447  2 C  py         
   170     11.197654  4 O  s                 60     10.971263  2 C  s          
    88     -9.634467  2 C  dyy               35     -9.264655  1 C  dzz        

 Vector   55  Occ=0.000000D+00  E= 5.318373D-01
              MO Center=  1.5D-01,  1.7D-01,  8.2D-01, r^2= 1.1D+01
   Bfn.  Coefficient  Atom+Function         Bfn.  Coefficient  Atom+Function  
  ----- ------------  ---------------      ----- ------------  ---------------
   223     37.090711  5 H  s                248    -28.710320  6 H  s          
     4     23.553596  1 C  s                273    -22.722788  7 H  s          
    68    -18.026139  2 C  py               115    -11.995408  3 O  s          
    69      9.878513  2 C  pz                67     -9.735239  2 C  px         
    86     -9.510604  2 C  dxy               35      9.219580  1 C  dzz        

 Vector   56  Occ=0.000000D+00  E= 5.395647D-01
              MO Center=  1.7D-01, -2.1D-01,  1.5D+00, r^2= 8.3D+00
   Bfn.  Coefficient  Atom+Function         Bfn.  Coefficient  Atom+Function  
  ----- ------------  ---------------      ----- ------------  ---------------
    59     38.892351  2 C  s                273    -29.555142  7 H  s          
   223    -14.622736  5 H  s                 88     11.737429  2 C  dyy        
    87    -11.013440  2 C  dxz              281      8.025189  7 H  px         
    89     -7.953052  2 C  dyz                4     -6.960050  1 C  s          
   248     -6.803327  6 H  s                 90      6.598392  2 C  dzz        

 Vector   57  Occ=0.000000D+00  E= 5.544530D-01
              MO Center= -2.4D-01,  2.2D-01,  1.3D+00, r^2= 8.8D+00
   Bfn.  Coefficient  Atom+Function         Bfn.  Coefficient  Atom+Function  
  ----- ------------  ---------------      ----- ------------  ---------------
    59    100.856536  2 C  s                248    -51.779212  6 H  s          
   223    -42.638084  5 H  s                273    -37.936867  7 H  s          
    88     23.759901  2 C  dyy               85     19.067139  2 C  dxx        
    60    -18.279893  2 C  s                 90     16.259466  2 C  dzz        
    69     12.729223  2 C  pz               256    -12.186402  6 H  px         

 Vector   58  Occ=0.000000D+00  E= 5.687934D-01
              MO Center= -4.1D-01, -2.0D-01,  1.1D+00, r^2= 7.9D+00
   Bfn.  Coefficient  Atom+Function         Bfn.  Coefficient  Atom+Function  
  ----- ------------  ---------------      ----- ------------  ---------------
    59     31.630576  2 C  s                248    -16.156442  6 H  s          
   223    -14.636083  5 H  s                273    -11.646342  7 H  s          
    87     10.087580  2 C  dxz               85      9.385758  2 C  dxx        
   258      6.485793  6 H  pz                60     -5.848306  2 C  s          
    90      5.068957  2 C  dzz               69      4.816686  2 C  pz         

 Vector   59  Occ=0.000000D+00  E= 5.722304D-01
              MO Center=  3.2D-02, -6.5D-02,  1.3D+00, r^2= 8.8D+00
   Bfn.  Coefficient  Atom+Function         Bfn.  Coefficient  Atom+Function  
  ----- ------------  ---------------      ----- ------------  ---------------
    59     93.247722  2 C  s                223    -44.248253  5 H  s          
   273    -31.947751  7 H  s                248    -27.806526  6 H  s          
    60    -20.692176  2 C  s                 85     19.051065  2 C  dxx        
     4    -18.681901  1 C  s                 88     16.520324  2 C  dyy        
    90     16.190529  2 C  dzz               89     12.647425  2 C  dyz        

 Vector   60  Occ=0.000000D+00  E= 5.990240D-01
              MO Center= -1.6D-01, -3.4D-02, -1.2D-01, r^2= 5.9D+00
   Bfn.  Coefficient  Atom+Function         Bfn.  Coefficient  Atom+Function  
  ----- ------------  ---------------      ----- ------------  ---------------
    59     51.751862  2 C  s                248    -31.457496  6 H  s          
   273    -26.265082  7 H  s                  5     22.236594  1 C  s          
    60    -20.089664  2 C  s                223    -19.452695  5 H  s          
    85     14.846446  2 C  dxx               90     10.973547  2 C  dzz        
    88     10.302373  2 C  dyy              115     -7.320003  3 O  s          

 Vector   61  Occ=0.000000D+00  E= 6.062634D-01
              MO Center=  6.7D-02, -4.1D-02,  4.6D-01, r^2= 9.2D+00
   Bfn.  Coefficient  Atom+Function         Bfn.  Coefficient  Atom+Function  
  ----- ------------  ---------------      ----- ------------  ---------------
    59     22.623955  2 C  s                  5     21.384336  1 C  s          
    60    -14.797981  2 C  s                223    -14.201642  5 H  s          
    89     12.830129  2 C  dyz              170    -10.222095  4 O  s          
   115     -9.451773  3 O  s                 13      8.003869  1 C  py         
    88      7.267473  2 C  dyy               14     -6.222257  1 C  pz         

 Vector   62  Occ=0.000000D+00  E= 6.167624D-01
              MO Center=  4.6D-03,  3.4D-01,  3.1D-01, r^2= 8.9D+00
   Bfn.  Coefficient  Atom+Function         Bfn.  Coefficient  Atom+Function  
  ----- ------------  ---------------      ----- ------------  ---------------
   273     13.595978  7 H  s                 86     12.055968  2 C  dxy        
   248    -10.642914  6 H  s                  5      7.208960  1 C  s          
   223     -6.700532  5 H  s                 85      5.556945  2 C  dxx        
    68      4.837305  2 C  py                59      4.735730  2 C  s          
    33      4.540022  1 C  dyy              115     -4.261063  3 O  s          

 Vector   63  Occ=0.000000D+00  E= 6.367223D-01
              MO Center=  3.2D-02, -2.4D-02, -4.6D-01, r^2= 8.4D+00
   Bfn.  Coefficient  Atom+Function         Bfn.  Coefficient  Atom+Function  
  ----- ------------  ---------------      ----- ------------  ---------------
   223     30.402839  5 H  s                 59    -23.441544  2 C  s          
    34    -19.291108  1 C  dyz               89    -10.659475  2 C  dyz        
    32    -10.430288  1 C  dxz              115    -10.044307  3 O  s          
     4      9.034182  1 C  s                170      8.626022  4 O  s          
   232     -6.451658  5 H  py                60      6.310094  2 C  s          

 Vector   64  Occ=0.000000D+00  E= 6.618927D-01
              MO Center=  1.1D-02, -7.2D-02, -2.9D-02, r^2= 7.5D+00
   Bfn.  Coefficient  Atom+Function         Bfn.  Coefficient  Atom+Function  
  ----- ------------  ---------------      ----- ------------  ---------------
    13     12.683921  1 C  py               170     11.577875  4 O  s          
    60     10.243762  2 C  s                  5     -8.889129  1 C  s          
     4     -8.571425  1 C  s                 34     -7.762455  1 C  dyz        
   169      6.417359  4 O  s                 12      6.166379  1 C  px         
    32     -4.781102  1 C  dxz              114     -4.249556  3 O  s          

 Vector   65  Occ=0.000000D+00  E= 6.683112D-01
              MO Center=  4.8D-03, -1.2D-01,  6.9D-01, r^2= 9.1D+00
   Bfn.  Coefficient  Atom+Function         Bfn.  Coefficient  Atom+Function  
  ----- ------------  ---------------      ----- ------------  ---------------
     4     40.224621  1 C  s                170    -18.540355  4 O  s          
     5     17.407383  1 C  s                 31     16.658206  1 C  dxy        
   115    -15.089385  3 O  s                 33     14.354774  1 C  dyy        
    59    -11.690827  2 C  s                 86    -10.195553  2 C  dxy        
   169     -7.530644  4 O  s                114     -5.885175  3 O  s          

 Vector   66  Occ=0.000000D+00  E= 6.760032D-01
              MO Center= -7.8D-02, -2.1D-01,  4.1D-01, r^2= 7.5D+00
   Bfn.  Coefficient  Atom+Function         Bfn.  Coefficient  Atom+Function  
  ----- ------------  ---------------      ----- ------------  ---------------
   248     31.317521  6 H  s                 59    -22.326922  2 C  s          
   223     13.792338  5 H  s                273    -12.439042  7 H  s          
    12     11.463414  1 C  px                 4      9.499351  1 C  s          
    87      9.161741  2 C  dxz              256      8.430682  6 H  px         
    88     -6.582273  2 C  dyy               89     -5.771890  2 C  dyz        

 Vector   67  Occ=0.000000D+00  E= 6.912099D-01
              MO Center= -5.0D-02,  5.0D-02,  7.5D-01, r^2= 8.1D+00
   Bfn.  Coefficient  Atom+Function         Bfn.  Coefficient  Atom+Function  
  ----- ------------  ---------------      ----- ------------  ---------------
    59     64.131367  2 C  s                223    -38.155831  5 H  s          
   273    -33.462922  7 H  s                  4    -26.710262  1 C  s          
   248    -22.576813  6 H  s                 90     14.832056  2 C  dzz        
    88     14.330997  2 C  dyy               85     14.155039  2 C  dxx        
   115     11.765609  3 O  s                 31     -8.954804  1 C  dxy        

 Vector   68  Occ=0.000000D+00  E= 7.342615D-01
              MO Center=  4.3D-02,  4.2D-01,  1.1D+00, r^2= 7.4D+00
   Bfn.  Coefficient  Atom+Function         Bfn.  Coefficient  Atom+Function  
  ----- ------------  ---------------      ----- ------------  ---------------
   273     30.122952  7 H  s                 69    -22.757348  2 C  pz         
     4    -21.005759  1 C  s                223     18.766686  5 H  s          
    59    -17.420101  2 C  s                 68     14.573357  2 C  py         
    13    -10.415033  1 C  py                86     10.435587  2 C  dxy        
    60     -9.659443  2 C  s                 14     -8.521288  1 C  pz         

 Vector   69  Occ=0.000000D+00  E= 7.438462D-01
              MO Center= -1.0D-02,  3.2D-01,  1.4D+00, r^2= 8.0D+00
   Bfn.  Coefficient  Atom+Function         Bfn.  Coefficient  Atom+Function  
  ----- ------------  ---------------      ----- ------------  ---------------
   248     35.808947  6 H  s                273    -35.321894  7 H  s          
    67     31.495235  2 C  px               223     21.643564  5 H  s          
    68    -20.713449  2 C  py                 4    -13.069400  1 C  s          
    86     -9.540096  2 C  dxy               69     -8.659878  2 C  pz         
    85     -5.903543  2 C  dxx              256      5.537086  6 H  px         

 Vector   70  Occ=0.000000D+00  E= 7.464646D-01
              MO Center=  1.2D-01, -1.1D-01,  1.6D+00, r^2= 8.2D+00
   Bfn.  Coefficient  Atom+Function         Bfn.  Coefficient  Atom+Function  
  ----- ------------  ---------------      ----- ------------  ---------------
   248     48.448410  6 H  s                223    -34.837068  5 H  s          
    59    -31.841122  2 C  s                 68     31.168838  2 C  py         
    67     24.308445  2 C  px               273     23.182662  7 H  s          
     4     16.976149  1 C  s                 85    -11.698356  2 C  dxx        
   256      8.499296  6 H  px                90     -5.777908  2 C  dzz        

 Vector   71  Occ=0.000000D+00  E= 7.658968D-01
              MO Center= -1.1D-01, -2.3D-01,  1.5D-01, r^2= 8.2D+00
   Bfn.  Coefficient  Atom+Function         Bfn.  Coefficient  Atom+Function  
  ----- ------------  ---------------      ----- ------------  ---------------
    59     44.948513  2 C  s                248    -41.259475  6 H  s          
   273    -41.148202  7 H  s                223    -37.645671  5 H  s          
    69     30.608030  2 C  pz                14     28.482784  1 C  pz         
     4     27.481620  1 C  s                 88     21.536695  2 C  dyy        
    13    -15.843361  1 C  py                86     13.233571  2 C  dxy        

 Vector   72  Occ=0.000000D+00  E= 7.987540D-01
              MO Center= -2.0D-03, -1.4D-01, -5.4D-02, r^2= 7.8D+00
   Bfn.  Coefficient  Atom+Function         Bfn.  Coefficient  Atom+Function  
  ----- ------------  ---------------      ----- ------------  ---------------
     4     15.441976  1 C  s                223     11.515981  5 H  s          
   170      9.555880  4 O  s                  5      8.564135  1 C  s          
   115      7.806922  3 O  s                 68     -7.674579  2 C  py         
    60     -7.595913  2 C  s                 30     -7.297969  1 C  dxx        
   248      6.792260  6 H  s                 33     -6.048546  1 C  dyy        

 Vector   73  Occ=0.000000D+00  E= 8.024853D-01
              MO Center= -1.7D-02, -8.5D-02,  8.6D-01, r^2= 8.1D+00
   Bfn.  Coefficient  Atom+Function         Bfn.  Coefficient  Atom+Function  
  ----- ------------  ---------------      ----- ------------  ---------------
    59    114.520379  2 C  s                223    -50.798998  5 H  s          
     4    -39.570196  1 C  s                273    -38.493043  7 H  s          
   248    -34.480206  6 H  s                 14    -30.754139  1 C  pz         
    88     25.936051  2 C  dyy               90     25.581207  2 C  dzz        
    85     21.809494  2 C  dxx               60    -17.354480  2 C  s          

 Vector   74  Occ=0.000000D+00  E= 8.261695D-01
              MO Center= -3.5D-01, -6.6D-01, -1.1D-01, r^2= 6.6D+00
   Bfn.  Coefficient  Atom+Function         Bfn.  Coefficient  Atom+Function  
  ----- ------------  ---------------      ----- ------------  ---------------
    59      8.794575  2 C  s                248     -5.655961  6 H  s          
    67     -5.209580  2 C  px                14     -4.866119  1 C  pz         
    86     -3.706077  2 C  dxy               88      3.534498  2 C  dyy        
     4     -2.988897  1 C  s                  5      2.670634  1 C  s          
    69     -2.638159  2 C  pz                60     -2.555752  2 C  s          

 Vector   75  Occ=0.000000D+00  E= 8.347292D-01
              MO Center=  3.9D-01,  5.0D-01,  1.1D-01, r^2= 7.3D+00
   Bfn.  Coefficient  Atom+Function         Bfn.  Coefficient  Atom+Function  
  ----- ------------  ---------------      ----- ------------  ---------------
   273     11.594640  7 H  s                 59    -10.326047  2 C  s          
   248      9.877409  6 H  s                 88     -7.858931  2 C  dyy        
    60      6.553064  2 C  s                  4      6.016416  1 C  s          
    90     -5.653004  2 C  dzz               85     -4.423064  2 C  dxx        
   114     -3.550396  3 O  s                247     -3.446466  6 H  s          

 Vector   76  Occ=0.000000D+00  E= 8.585721D-01
              MO Center=  1.8D-01,  5.5D-01, -3.4D-02, r^2= 7.7D+00
   Bfn.  Coefficient  Atom+Function         Bfn.  Coefficient  Atom+Function  
  ----- ------------  ---------------      ----- ------------  ---------------
    59     34.658945  2 C  s                223    -19.995870  5 H  s          
   273    -12.390711  7 H  s                 69      9.131080  2 C  pz         
   248     -7.372492  6 H  s                  4      5.925057  1 C  s          
    88      5.044537  2 C  dyy              170     -4.722805  4 O  s          
   114     -4.402225  3 O  s                 86     -3.992191  2 C  dxy        

 Vector   77  Occ=0.000000D+00  E= 8.678023D-01
              MO Center= -3.1D-02,  5.6D-02,  3.7D-01, r^2= 7.3D+00
   Bfn.  Coefficient  Atom+Function         Bfn.  Coefficient  Atom+Function  
  ----- ------------  ---------------      ----- ------------  ---------------
   223    -28.428338  5 H  s                 59     27.329374  2 C  s          
    68      8.502442  2 C  py                69      6.803223  2 C  pz         
    88      6.513684  2 C  dyy              115      6.319154  3 O  s          
    87      5.395421  2 C  dxz              170     -5.360256  4 O  s          
   232      5.211690  5 H  py               273     -5.211440  7 H  s          

 Vector   78  Occ=0.000000D+00  E= 8.757953D-01
              MO Center=  1.7D-01, -2.0D-01,  5.2D-01, r^2= 7.1D+00
   Bfn.  Coefficient  Atom+Function         Bfn.  Coefficient  Atom+Function  
  ----- ------------  ---------------      ----- ------------  ---------------
    59     19.002684  2 C  s                273    -12.512566  7 H  s          
   248     -4.677034  6 H  s                 13     -4.037810  1 C  py         
   282     -3.847733  7 H  py                89     -3.628790  2 C  dyz        
    53     -2.320473  1 C  fyyz             247     -2.237252  6 H  s          
    88      2.201097  2 C  dyy               69      2.145710  2 C  pz         

 Vector   79  Occ=0.000000D+00  E= 8.883535D-01
              MO Center=  8.7D-03,  1.7D-02, -2.0D-01, r^2= 8.8D+00
   Bfn.  Coefficient  Atom+Function         Bfn.  Coefficient  Atom+Function  
  ----- ------------  ---------------      ----- ------------  ---------------
    59     22.370386  2 C  s                248    -19.293962  6 H  s          
   273    -11.686439  7 H  s                 69      9.762749  2 C  pz         
   115     -8.160285  3 O  s                170      7.963958  4 O  s          
   169     -7.727957  4 O  s                 88      7.142707  2 C  dyy        
   114      6.778368  3 O  s                 89     -6.634657  2 C  dyz        

 Vector   80  Occ=0.000000D+00  E= 8.969848D-01
              MO Center= -5.3D-01, -2.8D-01,  6.0D-01, r^2= 7.4D+00
   Bfn.  Coefficient  Atom+Function         Bfn.  Coefficient  Atom+Function  
  ----- ------------  ---------------      ----- ------------  ---------------
    59     55.873887  2 C  s                248    -22.774174  6 H  s          
     4    -17.365290  1 C  s                273    -12.711989  7 H  s          
    88      9.346540  2 C  dyy              223     -8.485533  5 H  s          
    14     -7.899501  1 C  pz                35     -7.500591  1 C  dzz        
   256     -7.484576  6 H  px                90      6.976172  2 C  dzz        

 Vector   81  Occ=0.000000D+00  E= 9.082116D-01
              MO Center=  9.0D-02, -1.4D-01,  1.1D+00, r^2= 7.3D+00
   Bfn.  Coefficient  Atom+Function         Bfn.  Coefficient  Atom+Function  
  ----- ------------  ---------------      ----- ------------  ---------------
    59     18.010290  2 C  s                273    -13.275642  7 H  s          
    87      4.523863  2 C  dxz                5      4.248646  1 C  s          
    68     -4.096508  2 C  py               169     -3.911333  4 O  s          
   282     -3.396567  7 H  py                86      3.199469  2 C  dxy        
    12      3.178410  1 C  px                32      3.008339  1 C  dxz        

 Vector   82  Occ=0.000000D+00  E= 9.165408D-01
              MO Center=  7.3D-03,  1.7D-01,  7.5D-01, r^2= 7.2D+00
   Bfn.  Coefficient  Atom+Function         Bfn.  Coefficient  Atom+Function  
  ----- ------------  ---------------      ----- ------------  ---------------
    59     28.772233  2 C  s                273    -11.415977  7 H  s          
   223    -10.139967  5 H  s                  5      7.435760  1 C  s          
   248     -6.633284  6 H  s                  4     -6.510923  1 C  s          
    60     -5.374028  2 C  s                 85      5.268552  2 C  dxx        
    68     -4.790673  2 C  py                90      4.781136  2 C  dzz        

 Vector   83  Occ=0.000000D+00  E= 9.251098D-01
              MO Center=  2.5D-01,  3.0D-01, -3.8D-04, r^2= 7.1D+00
   Bfn.  Coefficient  Atom+Function         Bfn.  Coefficient  Atom+Function  
  ----- ------------  ---------------      ----- ------------  ---------------
    59     36.311205  2 C  s                248    -17.358098  6 H  s          
     5     14.708827  1 C  s                 60    -11.966882  2 C  s          
    85     11.548522  2 C  dxx              273    -11.423619  7 H  s          
    35    -11.139161  1 C  dzz               68     -9.444419  2 C  py         
   223     -9.431888  5 H  s                  4     -9.216525  1 C  s          

 Vector   84  Occ=0.000000D+00  E= 9.342711D-01
              MO Center=  6.1D-02,  1.3D-01,  6.0D-01, r^2= 8.4D+00
   Bfn.  Coefficient  Atom+Function         Bfn.  Coefficient  Atom+Function  
  ----- ------------  ---------------      ----- ------------  ---------------
    59     35.864179  2 C  s                  4    -27.755578  1 C  s          
    14    -11.371797  1 C  pz               170     11.185309  4 O  s          
   115     10.071356  3 O  s                 69     -8.651721  2 C  pz         
    35     -8.468023  1 C  dzz               33     -6.790480  1 C  dyy        
     5     -6.344937  1 C  s                248     -4.872558  6 H  s          

 Vector   85  Occ=0.000000D+00  E= 9.450722D-01
              MO Center= -1.2D-01,  7.6D-02,  1.1D+00, r^2= 6.8D+00
   Bfn.  Coefficient  Atom+Function         Bfn.  Coefficient  Atom+Function  
  ----- ------------  ---------------      ----- ------------  ---------------
    59     56.912520  2 C  s                223    -24.523944  5 H  s          
     4    -12.808019  1 C  s                273    -11.518522  7 H  s          
   248     -9.499024  6 H  s                114      7.555867  3 O  s          
    14     -7.183168  1 C  pz                88      6.934232  2 C  dyy        
    90      6.813285  2 C  dzz              232      5.784256  5 H  py         

 Vector   86  Occ=0.000000D+00  E= 9.660662D-01
              MO Center= -1.2D-01, -1.6D-01,  2.1D-01, r^2= 6.9D+00
   Bfn.  Coefficient  Atom+Function         Bfn.  Coefficient  Atom+Function  
  ----- ------------  ---------------      ----- ------------  ---------------
    59     54.397581  2 C  s                248    -32.952793  6 H  s          
   223    -21.692760  5 H  s                273    -20.290526  7 H  s          
    88     12.965143  2 C  dyy               34    -10.847994  1 C  dyz        
    85     10.885439  2 C  dxx               68      9.409041  2 C  py         
    90      8.062795  2 C  dzz               69      7.914911  2 C  pz         

 Vector   87  Occ=0.000000D+00  E= 9.838806D-01
              MO Center= -1.5D-01, -1.2D-01,  1.1D+00, r^2= 6.5D+00
   Bfn.  Coefficient  Atom+Function         Bfn.  Coefficient  Atom+Function  
  ----- ------------  ---------------      ----- ------------  ---------------
   273     27.172014  7 H  s                 59    -20.010574  2 C  s          
    89     14.775228  2 C  dyz              248     14.631319  6 H  s          
    69    -12.432306  2 C  pz                88    -11.270931  2 C  dyy        
    13     10.853577  1 C  py                86    -10.278257  2 C  dxy        
    14     -9.099853  1 C  pz               223      9.109895  5 H  s          

 Vector   88  Occ=0.000000D+00  E= 1.005015D+00
              MO Center=  1.3D-01,  3.2D-01,  9.1D-01, r^2= 6.2D+00
   Bfn.  Coefficient  Atom+Function         Bfn.  Coefficient  Atom+Function  
  ----- ------------  ---------------      ----- ------------  ---------------
    59     32.880671  2 C  s                273    -19.611470  7 H  s          
[...]
   123      5.682471  3 O  py               170     -5.458922  4 O  s          
   169     -5.078055  4 O  s                 59     -4.898451  2 C  s          

 Vector  291  Occ=0.000000D+00  E= 1.689972D+01
              MO Center= -2.3D-01, -4.7D-01, -6.3D-01, r^2= 1.8D+00
   Bfn.  Coefficient  Atom+Function         Bfn.  Coefficient  Atom+Function  
  ----- ------------  ---------------      ----- ------------  ---------------
   169     14.017198  4 O  s                114    -10.566690  3 O  s          
   167      9.280024  4 O  s                 59     -5.180537  2 C  s          
   112     -5.194955  3 O  s                178      5.024765  4 O  py         
   179      4.650172  4 O  pz                13      4.255349  1 C  py         
   123      3.971685  3 O  py               175      3.967351  4 O  py         

 Vector  292  Occ=0.000000D+00  E= 1.839393D+01
              MO Center=  3.4D-01,  5.8D-01, -4.5D-01, r^2= 1.9D+00
   Bfn.  Coefficient  Atom+Function         Bfn.  Coefficient  Atom+Function  
  ----- ------------  ---------------      ----- ------------  ---------------
    59     39.718288  2 C  s                  4    -21.644754  1 C  s          
   223    -21.019279  5 H  s                 13    -14.918308  1 C  py         
   248    -13.408107  6 H  s                273    -13.105971  7 H  s          
   123    -12.029312  3 O  py               120    -10.678895  3 O  py         
   124     10.338380  3 O  pz                12     -8.540242  1 C  px         

 Vector  293  Occ=0.000000D+00  E= 1.912262D+01
              MO Center= -2.9D-01, -5.5D-01, -3.7D-01, r^2= 2.6D+00
   Bfn.  Coefficient  Atom+Function         Bfn.  Coefficient  Atom+Function  
  ----- ------------  ---------------      ----- ------------  ---------------
     4     30.009490  1 C  s                 14    -15.823305  1 C  pz         
    59     14.729417  2 C  s                 31     12.628220  1 C  dxy        
    50    -12.517539  1 C  fxyz              53    -11.754545  1 C  fyyz       
    33     10.251069  1 C  dyy              222    -10.118644  5 H  s          
   175     -9.546348  4 O  py               272     -9.004176  7 H  s          

 Vector  294  Occ=0.000000D+00  E= 2.758549D+01
              MO Center= -4.2D-03,  1.1D-02, -3.3D-02, r^2= 1.6D+00
   Bfn.  Coefficient  Atom+Function         Bfn.  Coefficient  Atom+Function  
  ----- ------------  ---------------      ----- ------------  ---------------
     2     30.067604  1 C  s                114    -20.279734  3 O  s          
   169    -16.648977  4 O  s                  1     14.834462  1 C  s          
    59     12.777471  2 C  s                 25     11.213890  1 C  dxy        
    53     -9.942310  1 C  fyyz              33     -9.041632  1 C  dyy        
   123      8.475024  3 O  py               170      7.619428  4 O  s          

 Vector  295  Occ=0.000000D+00  E= 3.102262D+01
              MO Center= -5.2D-02,  1.1D-02,  1.5D+00, r^2= 1.0D+00
   Bfn.  Coefficient  Atom+Function         Bfn.  Coefficient  Atom+Function  
  ----- ------------  ---------------      ----- ------------  ---------------
    57     32.399996  2 C  s                 56     15.961828  2 C  s          
   223    -15.328648  5 H  s                 59     14.593136  2 C  s          
   248     -9.433503  6 H  s                273     -8.397603  7 H  s          
   222     -7.167429  5 H  s                  4     -6.919096  1 C  s          
    90      6.799640  2 C  dzz              247     -6.732403  6 H  s          


 center of mass
 --------------
 x =  -0.00310934 y =  -0.00300533 z =   0.14134645

 moments of inertia (a.u.)
 ------------------
         295.403346739364         -63.732951440579           6.034023307145
         -63.732951440579         218.618066389298          -1.689263870953
           6.034023307145          -1.689263870953         160.516343620317

     Multipole analysis of the density
     ---------------------------------

     L   x y z        total         alpha         beta         nuclear
     -   - - -        -----         -----         ----         -------
     0   0 0 0     -1.000000    -16.000000    -16.000000     31.000000

     1   1 0 0     -0.032306      0.115697      0.115697     -0.263699
     1   0 1 0      0.026073      0.051304      0.051304     -0.076534
     1   0 0 1      1.005461     -4.251766     -4.251766      9.508992

     2   2 0 0    -21.425930    -22.592862    -22.592862     23.759793
     2   1 1 0     -3.246469    -17.585652    -17.585652     31.924834
     2   1 0 1      0.176993      1.867524      1.867524     -3.558056
     2   0 2 0    -25.345516    -43.776242    -43.776242     62.206968
     2   0 1 1     -0.085415     -0.502034     -0.502034      0.918652
     2   0 0 2    -24.624261    -66.394601    -66.394601    108.164941

 Line search: 
     step= 1.00 grad=-5.7D-07 hess= 5.1D-07 energy=   -228.368339 mode=accept  
 new step= 1.00                   predicted energy=   -228.368339

          --------
          Step   6
          --------


                         Geometry "geometry" -> "geometry"
                         ---------------------------------

 Output coordinates in angstroms (scale by  1.889725989 to convert to a.u.)

  No.       Tag          Charge          X              Y              Z
 ---- ---------------- ---------- -------------- -------------- --------------
    1 C                    6.0000     0.00130722     0.00235869    -0.04882882
    2 C                    6.0000    -0.04852352     0.02203404     1.51773523
    3 O                    8.0000     0.58172128     0.98117128    -0.59954603
    4 O                    8.0000    -0.54079798    -1.00616352    -0.58570192
    5 H                    1.0000     0.31095568     0.97819423     1.92599588
    6 H                    1.0000    -1.07596282    -0.17134952     1.86516931
    7 H                    1.0000     0.58137513    -0.79376319     1.90932234

      Atomic Mass 
      ----------- 

      C                 12.000000
      O                 15.994910
      H                  1.007825


 Effective nuclear repulsion energy (a.u.)     110.9803417454

            Nuclear Dipole moment (a.u.) 
            ----------------------------
        X                 Y               Z
 ---------------- ---------------- ----------------
    -0.2636987851    -0.0765340193     9.5089923769


                                 NWChem DFT Module
                                 -----------------




 Summary of "ao basis" -> "ao basis" (cartesian)
 ------------------------------------------------------------------------------
       Tag                 Description            Shells   Functions and Types
 ---------------- ------------------------------  ------  ---------------------
 C                        aug-cc-pVTZ               14       55   5s4p3d2f
 O                        aug-cc-pVTZ               14       55   5s4p3d2f
 H                        aug-cc-pVTZ                9       25   4s3p2d



  The DFT is already converged 

         Total DFT energy =   -228.368339078684


            General Information
            -------------------
          SCF calculation type: DFT
          Wavefunction type:  closed shell.
          No. of atoms     :     7
          No. of electrons :    32
           Alpha electrons :    16
            Beta electrons :    16
          Charge           :    -1
          Spin multiplicity:     1
          Use of symmetry is: off; symmetry adaption is: off
          Maximum number of iterations: 200
          AO basis - number of functions:   295
                     number of shells:    83
          Convergence on energy requested:  1.00D-06
          Convergence on density requested:  1.00D-05
          Convergence on gradient requested:  5.00D-04

              XC Information
              --------------
          PerdewBurkeErnzerhof Exchange Functional  1.000          
            Perdew 1991 LDA Correlation Functional  1.000 local    
           PerdewBurkeErnz. Correlation Functional  1.000 non-local

             Grid Information
             ----------------
          Grid used for XC integration:  medium    
          Radial quadrature: Mura-Knowles        
          Angular quadrature: Lebedev. 
          Tag              B.-S. Rad. Rad. Pts. Rad. Cut. Ang. Pts.
          ---              ---------- --------- --------- ---------
          C                   0.70       49          13.0       434
          O                   0.60       49          14.0       434
          H                   0.35       45          13.0       434
          Grid pruning is: on 
          Number of quadrature shells:   331
          Spatial weights used:  Erf1

          Convergence Information
          -----------------------
          Convergence aids based upon iterative change in 
          total energy or number of iterations. 
          Levelshifting, if invoked, occurs when the 
          HOMO/LUMO gap drops below (HL_TOL):  1.00D-02
          DIIS, if invoked, will attempt to extrapolate 
          using up to (NFOCK): 10 stored Fock matrices.

                    Damping(40%)  Levelshifting(0.0)       DIIS
                  --------------- ------------------- ---------------
          dE  on:    start            ASAP                start   
          dE off:  200 iters        200 iters           200 iters 


      Screening Tolerance Information
      -------------------------------
          Density screening/tol_rho:  1.00D-10
          AO Gaussian exp screening on grid/accAOfunc:  14
          CD Gaussian exp screening on grid/accCDfunc:  20
          XC Gaussian exp screening on grid/accXCfunc:  20
          Schwarz screening/accCoul:  1.00D-08



                            NWChem DFT Gradient Module
                            --------------------------



  charge          =  -1.00
  wavefunction    = closed shell



                         DFT ENERGY GRADIENTS

    atom               coordinates                        gradient
                 x          y          z           x          y          z
   1 C       0.002470   0.004457  -0.092273    0.000025   0.000046  -0.000052
   2 C      -0.091696   0.041638   2.868104    0.000078   0.000017  -0.000005
   3 O       1.099294   1.854145  -1.132978   -0.000020  -0.000038   0.000036
   4 O      -1.021960  -1.901373  -1.106816   -0.000024   0.000000  -0.000015
   5 H       0.587621   1.848519   3.639604    0.000037   0.000039  -0.000016
   6 H      -2.033275  -0.323804   3.524659   -0.000050  -0.000085   0.000009
   7 H       1.098640  -1.499995   3.608096   -0.000047   0.000021   0.000043

                 ----------------------------------------
                 |  Time  |  1-e(secs)   |  2-e(secs)   |
                 ----------------------------------------
                 |  CPU   |       0.01   |       7.58   |
                 ----------------------------------------
                 |  WALL  |       0.01   |       7.62   |
                 ----------------------------------------

  Step       Energy      Delta E   Gmax     Grms     Xrms     Xmax   Walltime
  ---- ---------------- -------- -------- -------- -------- -------- --------
@    6    -228.36833908 -6.1D-08  0.00009  0.00004  0.00043  0.00106    344.4
                                     ok       ok       ok       ok  


      ----------------------
      Optimization converged
      ----------------------


  Step       Energy      Delta E   Gmax     Grms     Xrms     Xmax   Walltime
  ---- ---------------- -------- -------- -------- -------- -------- --------
@    6    -228.36833908 -6.1D-08  0.00009  0.00004  0.00043  0.00106    344.4
                                     ok       ok       ok       ok  



                         Geometry "geometry" -> "geometry"
                         ---------------------------------

 Output coordinates in angstroms (scale by  1.889725989 to convert to a.u.)

  No.       Tag          Charge          X              Y              Z
 ---- ---------------- ---------- -------------- -------------- --------------
    1 C                    6.0000     0.00130722     0.00235869    -0.04882882
    2 C                    6.0000    -0.04852352     0.02203404     1.51773523
    3 O                    8.0000     0.58172128     0.98117128    -0.59954603
    4 O                    8.0000    -0.54079798    -1.00616352    -0.58570192
    5 H                    1.0000     0.31095568     0.97819423     1.92599588
    6 H                    1.0000    -1.07596282    -0.17134952     1.86516931
    7 H                    1.0000     0.58137513    -0.79376319     1.90932234

      Atomic Mass 
      ----------- 

      C                 12.000000
      O                 15.994910
      H                  1.007825


 Effective nuclear repulsion energy (a.u.)     110.9803417454

            Nuclear Dipole moment (a.u.) 
            ----------------------------
        X                 Y               Z
 ---------------- ---------------- ----------------
    -0.2636987851    -0.0765340193     9.5089923769

 ==============================================================================
                                internuclear distances
 ------------------------------------------------------------------------------
       center one      |      center two      | atomic units |  angstroms
 ------------------------------------------------------------------------------
    2 C                |   1 C                |     2.96211  |     1.56748
    3 O                |   1 C                |     2.38902  |     1.26422
    4 O                |   1 C                |     2.38976  |     1.26461
    5 H                |   2 C                |     2.07882  |     1.10007
    6 H                |   2 C                |     2.08191  |     1.10170
    7 H                |   2 C                |     2.08354  |     1.10256
 ------------------------------------------------------------------------------
                         number of included internuclear distances:          6
 ==============================================================================



 ==============================================================================
                                 internuclear angles
 ------------------------------------------------------------------------------
        center 1       |       center 2       |       center 3       |  degrees
 ------------------------------------------------------------------------------
    2 C                |   1 C                |   3 O                |   116.12
    2 C                |   1 C                |   4 O                |   114.88
    3 O                |   1 C                |   4 O                |   129.00
    1 C                |   2 C                |   5 H                |   111.80
    1 C                |   2 C                |   6 H                |   110.04
    1 C                |   2 C                |   7 H                |   109.12
    5 H                |   2 C                |   6 H                |   109.89
    5 H                |   2 C                |   7 H                |   108.94
    6 H                |   2 C                |   7 H                |   106.91
 ------------------------------------------------------------------------------
                            number of included internuclear angles:          9
 ==============================================================================




 Task  times  cpu:      336.7s     wall:      344.2s


                                NWChem Input Module
                                -------------------


 Summary of allocated global arrays
-----------------------------------
  No active global arrays


MA_summarize_allocated_blocks: starting scan ...
MA_summarize_allocated_blocks: scan completed: 0 heap blocks, 0 stack blocks
MA usage statistics:

	allocation statistics:
					      heap	     stack
					      ----	     -----
	current number of blocks	         0	         0
	maximum number of blocks	        24	        53
	current total bytes		         0	         0
	maximum total bytes		 268981040	  42600984
	maximum total K-bytes		    268982	     42601
	maximum total M-bytes		       269	        43


                                     CITATION
                                     --------
                Please cite the following reference when publishing
                           results obtained with NWChem:

          E. Apra, E. J. Bylaska, W. A. de Jong, N. Govind, K. Kowalski,
       T. P. Straatsma, M. Valiev, H. J. J. van Dam, Y. Alexeev, J. Anchell,
       V. Anisimov, F. W. Aquino, R. Atta-Fynn, J. Autschbach, N. P. Bauman,
     J. C. Becca, D. E. Bernholdt, K. Bhaskaran-Nair, S. Bogatko, P. Borowski,
         J. Boschen, J. Brabec, A. Bruner, E. Cauet, Y. Chen, G. N. Chuev,
      C. J. Cramer, J. Daily, M. J. O. Deegan, T. H. Dunning Jr., M. Dupuis,
   K. G. Dyall, G. I. Fann, S. A. Fischer, A. Fonari, H. Fruchtl, L. Gagliardi,
      J. Garza, N. Gawande, S. Ghosh, K. Glaesemann, A. W. Gotz, J. Hammond,
       V. Helms, E. D. Hermes, K. Hirao, S. Hirata, M. Jacquelin, L. Jensen,
   B. G. Johnson, H. Jonsson, R. A. Kendall, M. Klemm, R. Kobayashi, V. Konkov,
      S. Krishnamoorthy, M. Krishnan, Z. Lin, R. D. Lins, R. J. Littlefield,
      A. J. Logsdail, K. Lopata, W. Ma, A. V. Marenich, J. Martin del Campo,
   D. Mejia-Rodriguez, J. E. Moore, J. M. Mullin, T. Nakajima, D. R. Nascimento,
    J. A. Nichols, P. J. Nichols, J. Nieplocha, A. Otero-de-la-Roza, B. Palmer,
    A. Panyala, T. Pirojsirikul, B. Peng, R. Peverati, J. Pittner, L. Pollack,
   R. M. Richard, P. Sadayappan, G. C. Schatz, W. A. Shelton, D. W. Silverstein,
   D. M. A. Smith, T. A. Soares, D. Song, M. Swart, H. L. Taylor, G. S. Thomas,
            V. Tipparaju, D. G. Truhlar, K. Tsemekhman, T. Van Voorhis,
      A. Vazquez-Mayagoitia, P. Verma, O. Villa, A. Vishnu, K. D. Vogiatzis,
        D. Wang, J. H. Weare, M. J. Williamson, T. L. Windus, K. Wolinski,
        A. T. Wong, Q. Wu, C. Yang, Q. Yu, M. Zacharias, Z. Zhang, Y. Zhao,
                                and R. J. Harrison
                        "NWChem: Past, present, and future
                         J. Chem. Phys. 152, 184102 (2020)
                               doi:10.1063/5.0004997

                                      AUTHORS
                                      -------
  E. Apra, E. J. Bylaska, N. Govind, K. Kowalski, M. Valiev, D. Mejia-Rodriguez,
       A. Kunitsa, N. P. Bauman, A. Panyala, W. A. de Jong, T. P. Straatsma,
   H. J. J. van Dam, D. Wang, T. L. Windus, J. Hammond, J. Autschbach, A. Woods,
    K. Bhaskaran-Nair, J. Brabec, K. Lopata, S. A. Fischer, S. Krishnamoorthy,
     M. Jacquelin, W. Ma, M. Klemm, O. Villa, Y. Chen, V. Anisimov, F. Aquino,
     S. Hirata, M. T. Hackler, E. Hermes, L. Jensen, J. E. Moore, J. C. Becca,
      V. Konjkov, T. Risthaus, M. Malagoli, A. Marenich, A. Otero-de-la-Roza,
        J. Mullin, P. Nichols, R. Peverati, J. Pittner, Y. Zhao, P.-D. Fan,
        A. Fonari, M. J. Williamson, R. J. Harrison, J. R. Rehr, M. Dupuis,
     D. Silverstein, D. M. A. Smith, J. Nieplocha, V. Tipparaju, M. Krishnan,
     B. E. Van Kuiken, A. Vazquez-Mayagoitia, M. Swart, Q. Wu, T. Van Voorhis,
     A. A. Auer, M. Nooijen, L. D. Crosby, E. Brown, G. Cisneros, G. I. Fann,
   H. Fruchtl, J. Garza, K. Hirao, R. A. Kendall, J. A. Nichols, K. Tsemekhman,
    K. Wolinski, J. Anchell, D. E. Bernholdt, P. Borowski, T. Clark, D. Clerc,
   H. Dachsel, M. J. O. Deegan, K. Dyall, D. Elwood, E. Glendening, M. Gutowski,
   A. C. Hess, J. Jaffe, B. G. Johnson, J. Ju, R. Kobayashi, R. Kutteh, Z. Lin,
   R. Littlefield, X. Long, B. Meng, T. Nakajima, S. Niu, L. Pollack, M. Rosing,
   K. Glaesemann, G. Sandrone, M. Stave, H. Taylor, G. Thomas, J. H. van Lenthe,
                               A. T. Wong, Z. Zhang.

 Total times  cpu:      336.7s     wall:      344.4s
