 argument  1 = m1e/mol.nwi
                                         
                                         


             Northwest Computational Chemistry Package (NWChem) 7.2.2
             --------------------------------------------------------


                    Environmental Molecular Sciences Laboratory
                       Pacific Northwest National Laboratory
                                Richland, WA 99352

                              Copyright (c) 1994-2022
                       Pacific Northwest National Laboratory
                            Battelle Memorial Institute

             NWChem is an open-source computational chemistry package
                        distributed under the terms of the
                      Educational Community License (ECL) 2.0
             A copy of the license is included with this distribution
                              in the LICENSE.TXT file

                                  ACKNOWLEDGMENT
                                  --------------

            This software and its documentation were developed at the
            EMSL at Pacific Northwest National Laboratory, a multiprogram
            national laboratory, operated for the U.S. Department of Energy
            by Battelle under Contract Number DE-AC05-76RL01830. Support
            for this work was provided by the Department of Energy Office
            of Biological and Environmental Research, Office of Basic
            Energy Sciences, and the Office of Advanced Scientific Computing.


           Job information
           ---------------

    hostname        = r366.ib.bridges2.psc.edu
    program         = nwchem
    date            = Tue Oct  1 15:09:26 2024

    compiled        = Mon_Mar_18_17:03:37_2024
    source          = /ocean/projects/pscstaff/mmadrid/nwchem-7.2.2
    nwchem branch   = 7.2.2
    nwchem revision = 74936fb9
    ga revision     = 5.8.0
    use scalapack   = F
    input           = m1e/mol.nwi
    prefix          = dft.
    data base       = .//dft.db
    status          = startup
    nproc           =       15
    time left       =     -1s



           Memory information
           ------------------

    heap     =   67108862 doubles =    512.0 Mbytes
    stack    =   67108859 doubles =    512.0 Mbytes
    global   =  134217728 doubles =   1024.0 Mbytes (distinct from heap & stack)
    total    =  268435449 doubles =   2048.0 Mbytes
    verify   = yes
    hardfail = no 


           Directory information
           ---------------------

  0 permanent = ./
  0 scratch   = /jet/home/hmt47/nwchem_scratch/




                                NWChem Input Module
                                -------------------


  library name resolved from: environment
  library file name is: </opt/packages/nwchem/nwchem7.2.2/share/nwchem/libraries/>
  


 Summary of "ao basis" -> "" (cartesian)
 ------------------------------------------------------------------------------
       Tag                 Description            Shells   Functions and Types
 ---------------- ------------------------------  ------  ---------------------
 *                        aug-cc-pVTZ                 on all atoms 


  pbe96 is a nonlocal functional; adding pw91lda local functional. 

 Scaling coordinates for geometry "geometry" by  1.889725989
 (inverse scale =  0.529177249)



                             Geometry "geometry" -> ""
                             -------------------------

 Output coordinates in angstroms (scale by  1.889725989 to convert to a.u.)

  No.       Tag          Charge          X              Y              Z
 ---- ---------------- ---------- -------------- -------------- --------------
    1 O                    8.0000     0.00000000     0.00000000     0.00000000
    2 H                    1.0000    -0.88085700     0.26021300     0.36233900

      Atomic Mass 
      ----------- 

      O                 15.994910
      H                  1.007825


 Effective nuclear repulsion energy (a.u.)       4.2875482449

            Nuclear Dipole moment (a.u.) 
            ----------------------------
        X                 Y               Z
 ---------------- ---------------- ----------------
    -1.6645783651     0.4917312687     0.6847214250


            XYZ format geometry
            -------------------
     2
 geometry
 O                     0.00000000     0.00000000     0.00000000
 H                    -0.88085700     0.26021300     0.36233900

 ==============================================================================
                                internuclear distances
 ------------------------------------------------------------------------------
       center one      |      center two      | atomic units |  angstroms
 ------------------------------------------------------------------------------
    2 H                |   1 O                |     1.86587  |     0.98738
 ------------------------------------------------------------------------------
                         number of included internuclear distances:          1
 ==============================================================================





                           NWChem Geometry Optimization
                           ----------------------------


 maximum gradient threshold         (gmax) =   0.000450
 rms gradient threshold             (grms) =   0.000300
 maximum cartesian step threshold   (xmax) =   0.001800
 rms cartesian step threshold       (xrms) =   0.001200
 fixed trust radius                (trust) =   0.300000
 maximum step size to saddle      (sadstp) =   0.100000
 energy precision                  (eprec) =   5.0D-06
 maximum number of steps          (nptopt) =   40
 initial hessian option           (inhess) =    0
 line search option               (linopt) =    1
 hessian update option            (modupd) =    1
 saddle point option              (modsad) =    0
 initial eigen-mode to follow     (moddir) =    0
 initial variable to follow       (vardir) =    0
 follow first negative mode     (firstneg) =    T
 apply conjugacy                    (opcg) =    F
 source of zmatrix                         =           


          -------------------
          Energy Minimization
          -------------------


 Using diagonal initial Hessian 

          --------
          Step   0
          --------


                         Geometry "geometry" -> "geometry"
                         ---------------------------------

 Output coordinates in angstroms (scale by  1.889725989 to convert to a.u.)

  No.       Tag          Charge          X              Y              Z
 ---- ---------------- ---------- -------------- -------------- --------------
    1 O                    8.0000     0.00000000     0.00000000     0.00000000
    2 H                    1.0000    -0.88085700     0.26021300     0.36233900

      Atomic Mass 
      ----------- 

      O                 15.994910
      H                  1.007825


 Effective nuclear repulsion energy (a.u.)       4.2875482449

            Nuclear Dipole moment (a.u.) 
            ----------------------------
        X                 Y               Z
 ---------------- ---------------- ----------------
    -1.6645783651     0.4917312687     0.6847214250


                                 NWChem DFT Module
                                 -----------------


                      Basis "ao basis" -> "ao basis" (cartesian)
                      -----
  O (Oxygen)
  ----------
            Exponent  Coefficients 
       -------------- ---------------------------------------------------------
  1 S  1.53300000E+04  0.000508
  1 S  2.29900000E+03  0.003929
  1 S  5.22400000E+02  0.020243
  1 S  1.47300000E+02  0.079181
  1 S  4.75500000E+01  0.230687
  1 S  1.67600000E+01  0.433118
  1 S  6.20700000E+00  0.350260
  1 S  6.88200000E-01 -0.008154

  2 S  1.53300000E+04 -0.000115
  2 S  2.29900000E+03 -0.000895
  2 S  5.22400000E+02 -0.004636
  2 S  1.47300000E+02 -0.018724
  2 S  4.75500000E+01 -0.058463
  2 S  1.67600000E+01 -0.136463
  2 S  6.20700000E+00 -0.175740
  2 S  6.88200000E-01  0.603418

  3 S  1.75200000E+00  1.000000

  4 S  2.38400000E-01  1.000000

  5 S  7.37600000E-02  1.000000

  6 P  3.44600000E+01  0.015928
  6 P  7.74900000E+00  0.099740
  6 P  2.28000000E+00  0.310492

  7 P  7.15600000E-01  1.000000

  8 P  2.14000000E-01  1.000000

  9 P  5.97400000E-02  1.000000

 10 D  2.31400000E+00  1.000000

 11 D  6.45000000E-01  1.000000

 12 D  2.14000000E-01  1.000000

 13 F  1.42800000E+00  1.000000

 14 F  5.00000000E-01  1.000000

  H (Hydrogen)
  ------------
            Exponent  Coefficients 
       -------------- ---------------------------------------------------------
  1 S  3.38700000E+01  0.006068
  1 S  5.09500000E+00  0.045308
  1 S  1.15900000E+00  0.202822

  2 S  3.25800000E-01  1.000000

  3 S  1.02700000E-01  1.000000

  4 S  2.52600000E-02  1.000000

  5 P  1.40700000E+00  1.000000

  6 P  3.88000000E-01  1.000000

  7 P  1.02000000E-01  1.000000

  8 D  1.05700000E+00  1.000000

  9 D  2.47000000E-01  1.000000



 Summary of "ao basis" -> "ao basis" (cartesian)
 ------------------------------------------------------------------------------
       Tag                 Description            Shells   Functions and Types
 ---------------- ------------------------------  ------  ---------------------
 O                        aug-cc-pVTZ               14       55   5s4p3d2f
 H                        aug-cc-pVTZ                9       25   4s3p2d




 Summary of "ao basis" -> "ao basis" (cartesian)
 ------------------------------------------------------------------------------
       Tag                 Description            Shells   Functions and Types
 ---------------- ------------------------------  ------  ---------------------
 O                        aug-cc-pVTZ               14       55   5s4p3d2f
 H                        aug-cc-pVTZ                9       25   4s3p2d


  Caching 1-el integrals 

            General Information
            -------------------
          SCF calculation type: DFT
          Wavefunction type:  closed shell.
          No. of atoms     :     2
          No. of electrons :    10
           Alpha electrons :     5
            Beta electrons :     5
          Charge           :    -1
          Spin multiplicity:     1
          Use of symmetry is: off; symmetry adaption is: off
          Maximum number of iterations: 200
          AO basis - number of functions:    80
                     number of shells:    23
          Convergence on energy requested:  1.00D-06
          Convergence on density requested:  1.00D-05
          Convergence on gradient requested:  5.00D-04

              XC Information
              --------------
          PerdewBurkeErnzerhof Exchange Functional  1.000          
            Perdew 1991 LDA Correlation Functional  1.000 local    
           PerdewBurkeErnz. Correlation Functional  1.000 non-local

             Grid Information
             ----------------
          Grid used for XC integration:  medium    
          Radial quadrature: Mura-Knowles        
          Angular quadrature: Lebedev. 
          Tag              B.-S. Rad. Rad. Pts. Rad. Cut. Ang. Pts.
          ---              ---------- --------- --------- ---------
          O                   0.60       49          10.0       434
          H                   0.35       45          10.0       434
          Grid pruning is: on 
          Number of quadrature shells:    94
          Spatial weights used:  Erf1

          Convergence Information
          -----------------------
          Convergence aids based upon iterative change in 
          total energy or number of iterations. 
          Levelshifting, if invoked, occurs when the 
          HOMO/LUMO gap drops below (HL_TOL):  1.00D-02
          DIIS, if invoked, will attempt to extrapolate 
          using up to (NFOCK): 10 stored Fock matrices.

                    Damping(40%)  Levelshifting(0.0)       DIIS
                  --------------- ------------------- ---------------
          dE  on:    start            0.00D+00            start   
          dE off:  200 iters          0.00D+00          200 iters 


      Screening Tolerance Information
      -------------------------------
          Density screening/tol_rho:  1.00D-10
          AO Gaussian exp screening on grid/accAOfunc:  14
          CD Gaussian exp screening on grid/accCDfunc:  20
          XC Gaussian exp screening on grid/accXCfunc:  20
          Schwarz screening/accCoul:  1.00D-08


 Forcing the number of linearly dependent vectors to be  0

      Superposition of Atomic Density Guess
      -------------------------------------

 Sum of atomic energies:         -75.28108408
   Time after variat. SCF:      0.2
   Time prior to 1st pass:      0.2

 Grid_pts file          = /jet/home/hmt47/nwchem_scratch//dft.gridpts.00
 Record size in doubles =  12289        No. of grid_pts per rec  =   3070
 Max. records in memory =      2        Max. recs in file   =  67550051

 Grid integrated density:       9.000000559707
 Requested integration accuracy:   0.10E-05

           Memory utilization after 1st SCF pass: 
           Heap Space remaining (MW):       33.53            33527054
          Stack Space remaining (MW):       67.11            67108340

   convergence    iter        energy       DeltaE   RMS-Dens  Diis-err    time
 ---------------- ----- ----------------- --------- --------- ---------  ------
 d=40,ls=0.0,diis     1    -75.6314176490 -7.99D+01  9.65D-03  3.59D+00     0.3
 Grid integrated density:       9.600000395205
 Requested integration accuracy:   0.10E-05
 d=40,ls=0.0,diis     2    -75.6802356182 -4.88D-02  2.35D-01  1.13D+00     0.3
 Grid integrated density:       9.839999013827
 Requested integration accuracy:   0.10E-05
 d=40,ls=0.0,diis     3    -75.0239937538  6.56D-01  1.40D-01  2.86D+00     0.4
 Grid integrated density:       9.935999783882
 Requested integration accuracy:   0.10E-05
 d=40,ls=0.0,diis     4    -75.6559304934 -6.32D-01  5.60D-02  1.31D-01     0.4
 Grid integrated density:       9.974400064519
 Requested integration accuracy:   0.10E-05
 d=40,ls=0.0,diis     5    -75.7272023084 -7.13D-02  2.24D-02  5.71D-03     0.5
 Grid integrated density:       9.989760164176
 Requested integration accuracy:   0.10E-05
  Resetting Diis
 d=40,ls=0.0,diis     6    -75.7440999027 -1.69D-02  9.08D-03  5.05D-03     0.5
 Grid integrated density:       9.995904208188
 Requested integration accuracy:   0.10E-05
 d=40,ls=0.0,diis     7    -75.7492407632 -5.14D-03  4.97D-03  1.47D-02     0.6
 Grid integrated density:       9.998361697017
 Requested integration accuracy:   0.10E-05
 d=40,ls=0.0,diis     8    -75.7462132970  3.03D-03  1.66D-03  5.63D-02     0.6
 Grid integrated density:       9.999344786637
 Requested integration accuracy:   0.10E-05
 d=40,ls=0.0,diis     9    -75.7527013147 -6.49D-03  7.22D-04  1.17D-02     0.7
 Grid integrated density:       9.999738024835
 Requested integration accuracy:   0.10E-05
 d=40,ls=0.0,diis    10    -75.7546571341 -1.96D-03  2.97D-04  2.03D-03     0.7
 Grid integrated density:       9.999895320684
 Requested integration accuracy:   0.10E-05
 d=40,ls=0.0,diis    11    -75.7552733957 -6.16D-04  1.22D-04  3.33D-04     0.8
 Grid integrated density:       9.999958239136
 Requested integration accuracy:   0.10E-05
 d=40,ls=0.0,diis    12    -75.7554892592 -2.16D-04  4.88D-05  5.20D-05     0.8
 Grid integrated density:       9.999983406479
 Requested integration accuracy:   0.10E-05
 d=40,ls=0.0,diis    13    -75.7555702318 -8.10D-05  1.97D-05  8.37D-06     0.9
 d=40,ls=0.0,diis    14    -75.7556018140 -3.16D-05  7.91D-06  1.34D-06     0.9
 d=40,ls=0.0,diis    15    -75.7556143157 -1.25D-05  3.16D-06  2.14D-07     1.0
  Singularity in Pulay matrix. Error and Fock matrices removed. 
  Singularity in Pulay matrix. Error and Fock matrices removed. 
  Singularity in Pulay matrix. Error and Fock matrices removed. 
  Singularity in Pulay matrix. Error and Fock matrices removed. 
  Singularity in Pulay matrix. Error and Fock matrices removed. 
 d=40,ls=0.0,diis    16    -75.7556192953 -4.98D-06  1.27D-06  3.42D-08     1.0
  Singularity in Pulay matrix. Error and Fock matrices removed. 
  Singularity in Pulay matrix. Error and Fock matrices removed. 
  Singularity in Pulay matrix. Error and Fock matrices removed. 
  Singularity in Pulay matrix. Error and Fock matrices removed. 
 d=40,ls=0.0,diis    17    -75.7556212838 -1.99D-06  5.08D-07  5.48D-09     1.1
  Singularity in Pulay matrix. Error and Fock matrices removed. 
 d=40,ls=0.0,diis    18    -75.7556220787 -7.95D-07  2.03D-07  8.76D-10     1.1


         Total DFT energy =      -75.755622078715
      One electron energy =     -116.013688315956
           Coulomb energy =       44.981307554313
    Exchange-Corr. energy =       -9.010789561990
 Nuclear repulsion energy =        4.287548244918

 Numeric. integr. density =       10.000000012908

     Total iterative time =      0.9s



                       DFT Final Molecular Orbital Analysis
                       ------------------------------------

 Vector    1  Occ=2.000000D+00  E=-1.840907D+01
              MO Center= -8.8D-05,  2.6D-05,  3.6D-05, r^2= 1.5D-02
   Bfn.  Coefficient  Atom+Function         Bfn.  Coefficient  Atom+Function  
  ----- ------------  ---------------      ----- ------------  ---------------
     1      0.976120  1 O  s                  3      0.058594  1 O  s          

 Vector    2  Occ=2.000000D+00  E=-5.156202D-01
              MO Center= -2.0D-01,  5.8D-02,  8.1D-02, r^2= 5.0D-01
   Bfn.  Coefficient  Atom+Function         Bfn.  Coefficient  Atom+Function  
  ----- ------------  ---------------      ----- ------------  ---------------
     2      0.479070  1 O  s                  4      0.332005  1 O  s          
     3      0.139327  1 O  s                 56      0.112958  2 H  s          
    57      0.108991  2 H  s                  6     -0.060858  1 O  px         
     9     -0.052923  1 O  px                 5      0.041096  1 O  s          
     1     -0.027088  1 O  s                  8      0.025034  1 O  pz         

 Vector    3  Occ=2.000000D+00  E=-5.359691D-02
              MO Center= -9.0D-02,  2.7D-02,  3.7D-02, r^2= 9.6D-01
   Bfn.  Coefficient  Atom+Function         Bfn.  Coefficient  Atom+Function  
  ----- ------------  ---------------      ----- ------------  ---------------
     6      0.266341  1 O  px                 9      0.246035  1 O  px         
     4      0.240585  1 O  s                 57     -0.221941  2 H  s          
     2      0.187364  1 O  s                 58     -0.172058  2 H  s          
    56     -0.162342  2 H  s                 12      0.155146  1 O  px         
     5      0.134218  1 O  s                  8     -0.109559  1 O  pz         

 Vector    4  Occ=2.000000D+00  E= 7.972615D-02
              MO Center= -4.2D-02,  1.2D-02,  1.7D-02, r^2= 1.1D+00
   Bfn.  Coefficient  Atom+Function         Bfn.  Coefficient  Atom+Function  
  ----- ------------  ---------------      ----- ------------  ---------------
     8      0.307563  1 O  pz                11      0.299109  1 O  pz         
    14      0.223499  1 O  pz                17      0.201844  1 O  pz         
     6      0.153552  1 O  px                 9      0.149331  1 O  px         
    12      0.111583  1 O  px                15      0.100771  1 O  px         
     7      0.091521  1 O  py                10      0.089005  1 O  py         

 Vector    5  Occ=2.000000D+00  E= 7.972615D-02
              MO Center= -4.2D-02,  1.2D-02,  1.7D-02, r^2= 1.1D+00
   Bfn.  Coefficient  Atom+Function         Bfn.  Coefficient  Atom+Function  
  ----- ------------  ---------------      ----- ------------  ---------------
     7      0.330733  1 O  py                10      0.321642  1 O  py         
    13      0.240336  1 O  py                16      0.217049  1 O  py         
     8     -0.122115  1 O  pz                11     -0.118758  1 O  pz         
    14     -0.088738  1 O  pz                17     -0.080140  1 O  pz         
     6      0.047470  1 O  px                 9      0.046165  1 O  px         

 Vector    6  Occ=0.000000D+00  E= 1.341935D-01
              MO Center= -1.3D+00,  3.7D-01,  5.2D-01, r^2= 1.3D+01
   Bfn.  Coefficient  Atom+Function         Bfn.  Coefficient  Atom+Function  
  ----- ------------  ---------------      ----- ------------  ---------------
     5      2.361122  1 O  s                 59     -1.756994  2 H  s          
    58     -1.438327  2 H  s                  4      0.636535  1 O  s          
    66     -0.422030  2 H  px                15     -0.407193  1 O  px         
    12     -0.288455  1 O  px                57     -0.231167  2 H  s          
    68      0.173601  2 H  pz                17      0.167498  1 O  pz         

 Vector    7  Occ=0.000000D+00  E= 2.409472D-01
              MO Center=  4.0D-01, -1.2D-01, -1.7D-01, r^2= 9.7D+00
   Bfn.  Coefficient  Atom+Function         Bfn.  Coefficient  Atom+Function  
  ----- ------------  ---------------      ----- ------------  ---------------
    58      7.455911  2 H  s                  5     -5.739459  1 O  s          
    15      2.338054  1 O  px                66      1.777620  2 H  px         
     4     -1.391384  1 O  s                 59      1.039501  2 H  s          
    17     -0.961754  1 O  pz                68     -0.731221  2 H  pz         
    16     -0.690682  1 O  py                12      0.593135  1 O  px         

 Vector    8  Occ=0.000000D+00  E= 2.733717D-01
              MO Center=  2.9D-01, -8.5D-02, -1.2D-01, r^2= 7.3D+00
   Bfn.  Coefficient  Atom+Function         Bfn.  Coefficient  Atom+Function  
  ----- ------------  ---------------      ----- ------------  ---------------
    17      1.388479  1 O  pz                15      0.629617  1 O  px         
    14     -0.554542  1 O  pz                68     -0.482234  2 H  pz         
    12     -0.251461  1 O  px                66     -0.218673  2 H  px         
    48      0.209027  1 O  fxxz              16      0.197925  1 O  py         
    32     -0.194126  1 O  dxz               55      0.185534  1 O  fzzz       

 Vector    9  Occ=0.000000D+00  E= 2.733717D-01
              MO Center=  2.9D-01, -8.5D-02, -1.2D-01, r^2= 7.3D+00
   Bfn.  Coefficient  Atom+Function         Bfn.  Coefficient  Atom+Function  
  ----- ------------  ---------------      ----- ------------  ---------------
    16      1.469742  1 O  py                13     -0.586997  1 O  py         
    67     -0.510458  2 H  py                17     -0.342502  1 O  pz         
    15      0.293287  1 O  px                31     -0.237715  1 O  dxy        
    47      0.235123  1 O  fxxy              54      0.193316  1 O  fyzz       
    52      0.191941  1 O  fyyy              76     -0.163910  2 H  dxy        

 Vector   10  Occ=0.000000D+00  E= 2.822151D-01
              MO Center= -4.3D-01,  1.3D-01,  1.8D-01, r^2= 8.8D+00
   Bfn.  Coefficient  Atom+Function         Bfn.  Coefficient  Atom+Function  
  ----- ------------  ---------------      ----- ------------  ---------------
     5      2.554738  1 O  s                 59     -1.272804  2 H  s          
    58      1.025321  2 H  s                 66     -1.006512  2 H  px         
     4      0.977131  1 O  s                 57     -0.885767  2 H  s          
    15      0.619689  1 O  px                12     -0.593904  1 O  px         
    75     -0.482041  2 H  dxx               68      0.414027  2 H  pz         

 Vector   11  Occ=0.000000D+00  E= 3.486955D-01
              MO Center= -3.8D-01,  1.1D-01,  1.6D-01, r^2= 7.2D+00
   Bfn.  Coefficient  Atom+Function         Bfn.  Coefficient  Atom+Function  
  ----- ------------  ---------------      ----- ------------  ---------------
    58     -6.800160  2 H  s                  5      6.603337  1 O  s          
    15     -1.963091  1 O  px                57      1.493714  2 H  s          
    78      0.835581  2 H  dyy               80      0.833152  2 H  dzz        
    30     -0.828991  1 O  dxx               17      0.807514  1 O  pz         
    75      0.808517  2 H  dxx               35     -0.756862  1 O  dzz        

 Vector   12  Occ=0.000000D+00  E= 3.858298D-01
              MO Center= -9.6D-01,  2.8D-01,  4.0D-01, r^2= 5.5D+00
   Bfn.  Coefficient  Atom+Function         Bfn.  Coefficient  Atom+Function  
  ----- ------------  ---------------      ----- ------------  ---------------
    67      2.440842  2 H  py                13     -1.474799  1 O  py         
    16     -1.174907  1 O  py                31      0.794456  1 O  dxy        
    66      0.654211  2 H  px                76      0.606042  2 H  dxy        
    12     -0.395286  1 O  px                34     -0.337932  1 O  dyz        
    64      0.336385  2 H  py                15     -0.314907  1 O  px         

 Vector   13  Occ=0.000000D+00  E= 3.858298D-01
              MO Center= -9.6D-01,  2.8D-01,  4.0D-01, r^2= 5.5D+00
   Bfn.  Coefficient  Atom+Function         Bfn.  Coefficient  Atom+Function  
  ----- ------------  ---------------      ----- ------------  ---------------
    68      2.349935  2 H  pz                14     -1.419871  1 O  pz         
    17     -1.131149  1 O  pz                66      0.938541  2 H  px         
    32      0.694171  1 O  dxz               12     -0.567083  1 O  px         
    77      0.529541  2 H  dxz               15     -0.451769  1 O  px         
    35     -0.341680  1 O  dzz               30      0.331747  1 O  dxx        

 Vector   14  Occ=0.000000D+00  E= 5.098262D-01
              MO Center= -1.0D+00,  3.1D-01,  4.3D-01, r^2= 6.0D+00
   Bfn.  Coefficient  Atom+Function         Bfn.  Coefficient  Atom+Function  
  ----- ------------  ---------------      ----- ------------  ---------------
    58     12.086091  2 H  s                  5     -9.095527  1 O  s          
    66      4.171281  2 H  px                 4     -3.790361  1 O  s          
    12      2.371248  1 O  px                68     -1.715849  2 H  pz         
    15      1.582310  1 O  px                67     -1.232234  2 H  py         
    57      1.149287  2 H  s                 59      1.147730  2 H  s          

 Vector   15  Occ=0.000000D+00  E= 6.137060D-01
              MO Center= -2.9D-01,  8.5D-02,  1.2D-01, r^2= 5.4D+00
   Bfn.  Coefficient  Atom+Function         Bfn.  Coefficient  Atom+Function  
  ----- ------------  ---------------      ----- ------------  ---------------
    58     16.452310  2 H  s                  5     -8.377914  1 O  s          
    57     -4.204247  2 H  s                 15      2.531410  1 O  px         
    66      2.104375  2 H  px                75     -2.010714  2 H  dxx        
    80     -1.888959  2 H  dzz               78     -1.876950  2 H  dyy        
    17     -1.041291  1 O  pz                68     -0.865631  2 H  pz         

 Vector   16  Occ=0.000000D+00  E= 7.585152D-01
              MO Center= -1.5D-01,  4.6D-02,  6.3D-02, r^2= 2.5D+00
   Bfn.  Coefficient  Atom+Function         Bfn.  Coefficient  Atom+Function  
  ----- ------------  ---------------      ----- ------------  ---------------
    33      0.704077  1 O  dyy               35     -0.670306  1 O  dzz        
    32     -0.507194  1 O  dxz               31      0.477618  1 O  dxy        
    78      0.179129  2 H  dyy               80     -0.170537  2 H  dzz        
    34      0.149842  1 O  dyz               77     -0.129038  2 H  dxz        
    76      0.121514  2 H  dxy               27     -0.084040  1 O  dyy        

 Vector   17  Occ=0.000000D+00  E= 7.585164D-01
              MO Center= -1.5D-01,  4.6D-02,  6.3D-02, r^2= 2.5D+00
   Bfn.  Coefficient  Atom+Function         Bfn.  Coefficient  Atom+Function  
  ----- ------------  ---------------      ----- ------------  ---------------
    34      1.382106  1 O  dyz               31      0.477261  1 O  dxy        
    32      0.408291  1 O  dxz               79      0.351641  2 H  dyz        
    28     -0.164970  1 O  dyz               30      0.154469  1 O  dxx        
    33     -0.154474  1 O  dyy               76      0.121427  2 H  dxy        
    77      0.103879  2 H  dxz               25     -0.056967  1 O  dxy        

 Vector   18  Occ=0.000000D+00  E= 8.055989D-01
              MO Center=  3.9D-01, -1.2D-01, -1.6D-01, r^2= 4.2D+00
   Bfn.  Coefficient  Atom+Function         Bfn.  Coefficient  Atom+Function  
  ----- ------------  ---------------      ----- ------------  ---------------
     5      6.143045  1 O  s                 58     -5.841645  2 H  s          
    57      5.134108  2 H  s                 30     -2.677415  1 O  dxx        
    35     -1.443331  1 O  dzz               33     -1.321613  1 O  dyy        
    32      1.222057  1 O  dxz               75      1.216687  2 H  dxx        
     4     -1.136253  1 O  s                 80      1.093947  2 H  dzz        

 Vector   19  Occ=0.000000D+00  E= 8.152692D-01
              MO Center=  4.7D-01, -1.4D-01, -1.9D-01, r^2= 3.3D+00
   Bfn.  Coefficient  Atom+Function         Bfn.  Coefficient  Atom+Function  
  ----- ------------  ---------------      ----- ------------  ---------------
    32      1.368085  1 O  dxz               68      1.088613  2 H  pz         
    17     -0.981474  1 O  pz                14      0.922130  1 O  pz         
    30      0.861970  1 O  dxx               48     -0.767164  1 O  fxxz       
    34     -0.722436  1 O  dyz               35     -0.708612  1 O  dzz        
    77      0.703476  2 H  dxz               53     -0.641034  1 O  fyyz       

 Vector   20  Occ=0.000000D+00  E= 8.152692D-01
              MO Center=  4.7D-01, -1.4D-01, -1.9D-01, r^2= 3.3D+00
   Bfn.  Coefficient  Atom+Function         Bfn.  Coefficient  Atom+Function  
  ----- ------------  ---------------      ----- ------------  ---------------
    31      1.775301  1 O  dxy               67      1.171068  2 H  py         
    16     -1.055814  1 O  py                13      0.991975  1 O  py         
    47     -0.929183  1 O  fxxy              76      0.912869  2 H  dxy        
    32     -0.798683  1 O  dxz               52     -0.666359  1 O  fyyy       
    54     -0.663637  1 O  fyzz              34     -0.558363  1 O  dyz        

 Vector   21  Occ=0.000000D+00  E= 8.329457D-01
              MO Center= -2.2D-01,  6.4D-02,  9.0D-02, r^2= 4.1D+00
   Bfn.  Coefficient  Atom+Function         Bfn.  Coefficient  Atom+Function  
  ----- ------------  ---------------      ----- ------------  ---------------
    57     -7.067704  2 H  s                  4      6.688089  1 O  s          
    58      3.102550  2 H  s                 63     -2.467373  2 H  px         
    33     -2.187868  1 O  dyy               35     -1.992779  1 O  dzz        
    32     -1.958716  1 O  dxz               31     -1.406648  1 O  dxy        
    75     -1.347268  2 H  dxx                5      1.265759  1 O  s          

 Vector   22  Occ=0.000000D+00  E= 8.441614D-01
              MO Center= -8.5D-01,  2.5D-01,  3.5D-01, r^2= 3.1D+00
   Bfn.  Coefficient  Atom+Function         Bfn.  Coefficient  Atom+Function  
  ----- ------------  ---------------      ----- ------------  ---------------
    14      2.837493  1 O  pz                13      1.829774  1 O  py         
    12      1.707729  1 O  px                68     -1.557976  2 H  pz         
    32     -1.280115  1 O  dxz               30     -1.023919  1 O  dxx        
    67     -1.004669  2 H  py                34      0.953867  1 O  dyz        
    66     -0.937659  2 H  px                77     -0.880465  2 H  dxz        

 Vector   23  Occ=0.000000D+00  E= 8.441614D-01
              MO Center= -8.5D-01,  2.5D-01,  3.5D-01, r^2= 3.1D+00
   Bfn.  Coefficient  Atom+Function         Bfn.  Coefficient  Atom+Function  
  ----- ------------  ---------------      ----- ------------  ---------------
    13      3.158074  1 O  py                14     -2.082433  1 O  pz         
    31     -1.879997  1 O  dxy               67     -1.733996  2 H  py         
    76     -1.293066  2 H  dxy               32      1.267406  1 O  dxz        
    68      1.143396  2 H  pz                77      0.871724  2 H  dxz        
    54     -0.661577  1 O  fyzz              52     -0.634113  1 O  fyyy       

 Vector   24  Occ=0.000000D+00  E= 1.044010D+00
              MO Center= -9.2D-01,  2.7D-01,  3.8D-01, r^2= 2.7D+00
   Bfn.  Coefficient  Atom+Function         Bfn.  Coefficient  Atom+Function  
  ----- ------------  ---------------      ----- ------------  ---------------
    77      1.195169  2 H  dxz               75      1.079708  2 H  dxx        
    76      1.053322  2 H  dxy               79     -1.048750  2 H  dyz        
    80     -0.674325  2 H  dzz               68      0.626272  2 H  pz         
    67      0.524258  2 H  py                14     -0.417066  1 O  pz         
    66      0.412486  2 H  px                78     -0.405383  2 H  dyy        

 Vector   25  Occ=0.000000D+00  E= 1.044010D+00
              MO Center= -9.2D-01,  2.7D-01,  3.8D-01, r^2= 2.7D+00
   Bfn.  Coefficient  Atom+Function         Bfn.  Coefficient  Atom+Function  
  ----- ------------  ---------------      ----- ------------  ---------------
    76      1.879820  2 H  dxy               77     -1.479344  2 H  dxz        
    67      0.710081  2 H  py                80      0.620636  2 H  dzz        
    68     -0.576408  2 H  pz                78     -0.549071  2 H  dyy        
    13     -0.472878  1 O  py                14      0.383859  1 O  pz         
    47     -0.357632  1 O  fxxy              79     -0.318856  2 H  dyz        

 Vector   26  Occ=0.000000D+00  E= 1.044138D+00
              MO Center= -7.4D-01,  2.2D-01,  3.0D-01, r^2= 2.8D+00
   Bfn.  Coefficient  Atom+Function         Bfn.  Coefficient  Atom+Function  
  ----- ------------  ---------------      ----- ------------  ---------------
    78      1.120434  2 H  dyy               80     -1.066693  2 H  dzz        
    33     -0.889155  1 O  dyy               35      0.846507  1 O  dzz        
    77     -0.807127  2 H  dxz               76      0.760057  2 H  dxy        
    32      0.640520  1 O  dxz               31     -0.603166  1 O  dxy        
    79      0.238442  2 H  dyz               34     -0.189223  1 O  dyz        

 Vector   27  Occ=0.000000D+00  E= 1.044139D+00
              MO Center= -7.4D-01,  2.2D-01,  3.0D-01, r^2= 2.8D+00
   Bfn.  Coefficient  Atom+Function         Bfn.  Coefficient  Atom+Function  
  ----- ------------  ---------------      ----- ------------  ---------------
    79      2.199427  2 H  dyz               34     -1.745428  1 O  dyz        
    76      0.759496  2 H  dxy               77      0.649735  2 H  dxz        
    31     -0.602723  1 O  dxy               32     -0.515618  1 O  dxz        
    50      0.281526  1 O  fxyz              75      0.245815  2 H  dxx        
    78     -0.245819  2 H  dyy               30     -0.195074  1 O  dxx        

 Vector   28  Occ=0.000000D+00  E= 1.056914D+00
              MO Center= -1.2D+00,  3.4D-01,  4.8D-01, r^2= 3.3D+00
   Bfn.  Coefficient  Atom+Function         Bfn.  Coefficient  Atom+Function  
  ----- ------------  ---------------      ----- ------------  ---------------
    58     -5.959855  2 H  s                  4      5.531745  1 O  s          
     5      4.404096  1 O  s                 66     -3.357188  2 H  px         
    12     -2.723385  1 O  px                75     -1.891880  2 H  dxx        
    57     -1.741725  2 H  s                 68      1.380974  2 H  pz         
    77      1.356097  2 H  dxz               63     -1.219092  2 H  px         

 Vector   29  Occ=0.000000D+00  E= 1.226098D+00
              MO Center= -5.7D-01,  1.7D-01,  2.4D-01, r^2= 4.0D+00
   Bfn.  Coefficient  Atom+Function         Bfn.  Coefficient  Atom+Function  
  ----- ------------  ---------------      ----- ------------  ---------------
    58     20.435843  2 H  s                  5    -10.412975  1 O  s          
    78     -3.912696  2 H  dyy               80     -3.767574  2 H  dzz        
    66      3.455809  2 H  px                 4     -3.204857  1 O  s          
    15      2.287556  1 O  px                75     -2.296197  2 H  dxx        
    57     -2.053585  2 H  s                 77     -1.457038  2 H  dxz        

 Vector   30  Occ=0.000000D+00  E= 1.284422D+00
              MO Center= -4.6D-01,  1.3D-01,  1.9D-01, r^2= 3.6D+00
   Bfn.  Coefficient  Atom+Function         Bfn.  Coefficient  Atom+Function  
  ----- ------------  ---------------      ----- ------------  ---------------
    12     13.678316  1 O  px                57     13.225073  2 H  s          
    30     -6.828018  1 O  dxx               14     -5.626552  1 O  pz         
    32      4.884483  1 O  dxz                4     -4.489288  1 O  s          
    13     -4.040696  1 O  py                31      3.507781  1 O  dxy        
    78      3.263921  2 H  dyy               80      2.972854  2 H  dzz        

 Vector   31  Occ=0.000000D+00  E= 1.569677D+00
              MO Center= -6.8D-01,  2.0D-01,  2.8D-01, r^2= 2.4D+00
   Bfn.  Coefficient  Atom+Function         Bfn.  Coefficient  Atom+Function  
  ----- ------------  ---------------      ----- ------------  ---------------
    13      2.728148  1 O  py                64     -2.501924  2 H  py         
    31     -2.356632  1 O  dxy               76     -2.050405  2 H  dxy        
    34      1.549505  1 O  dyz               67     -1.442446  2 H  py         
    30     -1.390052  1 O  dxx               12      1.370403  1 O  px         
    14      1.372276  1 O  pz                79      1.348158  2 H  dyz        

 Vector   32  Occ=0.000000D+00  E= 1.569677D+00
              MO Center= -6.8D-01,  2.0D-01,  2.8D-01, r^2= 2.4D+00
   Bfn.  Coefficient  Atom+Function         Bfn.  Coefficient  Atom+Function  
  ----- ------------  ---------------      ----- ------------  ---------------
    14      2.794991  1 O  pz                32     -2.568237  1 O  dxz        
    65     -2.563225  2 H  pz                77     -2.234513  2 H  dxz        
    31      1.943523  1 O  dxy               13     -1.727135  1 O  py         
    76      1.690977  2 H  dxy               64      1.583917  2 H  py         
    68     -1.477788  2 H  pz                35      1.166200  1 O  dzz        

 Vector   33  Occ=0.000000D+00  E= 1.802684D+00
              MO Center= -5.0D-01,  1.5D-01,  2.1D-01, r^2= 2.5D+00
   Bfn.  Coefficient  Atom+Function         Bfn.  Coefficient  Atom+Function  
  ----- ------------  ---------------      ----- ------------  ---------------
     4     13.360890  1 O  s                 57    -12.362885  2 H  s          
    63     -6.298139  2 H  px                58      2.927590  2 H  s          
    46     -2.857426  1 O  fxxx              65      2.590729  2 H  pz         
    51     -2.430668  1 O  fxzz               9     -2.331385  1 O  px         
    49     -2.217605  1 O  fxyy              75     -2.194398  2 H  dxx        

 Vector   34  Occ=0.000000D+00  E= 2.021069D+00
              MO Center=  1.1D-01, -3.2D-02, -4.4D-02, r^2= 1.9D+00
   Bfn.  Coefficient  Atom+Function         Bfn.  Coefficient  Atom+Function  
  ----- ------------  ---------------      ----- ------------  ---------------
    14      2.537610  1 O  pz                48     -1.901368  1 O  fxxz       
    53     -1.841491  1 O  fyyz              55     -1.836172  1 O  fzzz       
    12      1.391856  1 O  px                13      1.178077  1 O  py         
    46     -1.085394  1 O  fxxx              49     -0.952296  1 O  fxyy       
    54     -0.894190  1 O  fyzz              47     -0.863028  1 O  fxxy       

 Vector   35  Occ=0.000000D+00  E= 2.021069D+00
              MO Center=  1.1D-01, -3.2D-02, -4.4D-02, r^2= 1.9D+00
   Bfn.  Coefficient  Atom+Function         Bfn.  Coefficient  Atom+Function  
  ----- ------------  ---------------      ----- ------------  ---------------
    13      2.774625  1 O  py                47     -2.154244  1 O  fxxy       
    52     -1.992284  1 O  fyyy              54     -1.984365  1 O  fyzz       
    14     -1.417796  1 O  pz                48      1.118785  1 O  fxxz       
    55      1.025893  1 O  fzzz              53      0.972400  1 O  fyyz       
    16     -0.401581  1 O  py                10      0.378817  1 O  py         

 Vector   36  Occ=0.000000D+00  E= 2.096722D+00
              MO Center=  3.7D-01, -1.1D-01, -1.5D-01, r^2= 2.6D+00
   Bfn.  Coefficient  Atom+Function         Bfn.  Coefficient  Atom+Function  
  ----- ------------  ---------------      ----- ------------  ---------------
     4      9.801822  1 O  s                  5      4.454569  1 O  s          
    12     -4.391538  1 O  px                58     -2.921638  2 H  s          
    57     -2.506744  2 H  s                 14      1.806451  1 O  pz         
    46      1.741654  1 O  fxxx              63     -1.550319  2 H  px         
    33     -1.497676  1 O  dyy               51      1.493046  1 O  fxzz       

 Vector   37  Occ=0.000000D+00  E= 2.099217D+00
              MO Center=  5.6D-11,  9.9D-11,  1.2D-10, r^2= 1.3D+00
   Bfn.  Coefficient  Atom+Function         Bfn.  Coefficient  Atom+Function  
  ----- ------------  ---------------      ----- ------------  ---------------
    50      2.007842  1 O  fxyz              53      1.491800  1 O  fyyz       
    54      1.369221  1 O  fyzz              52     -0.601970  1 O  fyyy       
    55     -0.557309  1 O  fzzz              47      0.436641  1 O  fxxy       
    51     -0.283258  1 O  fxzz              40     -0.229541  1 O  fxyz       
    48      0.180044  1 O  fxxz              43     -0.170553  1 O  fyyz       

 Vector   38  Occ=0.000000D+00  E= 2.099217D+00
              MO Center= -1.6D-10, -1.9D-10, -1.9D-10, r^2= 1.3D+00
   Bfn.  Coefficient  Atom+Function         Bfn.  Coefficient  Atom+Function  
  ----- ------------  ---------------      ----- ------------  ---------------
    53      1.589914  1 O  fyyz              54     -1.595433  1 O  fyzz       
    49      1.055868  1 O  fxyy              51     -0.943080  1 O  fxzz       
    52      0.453455  1 O  fyyy              48     -0.443063  1 O  fxxz       
    55     -0.382302  1 O  fzzz              50     -0.373211  1 O  fxyz       
    47      0.235160  1 O  fxxy              43     -0.181767  1 O  fyyz       

 Vector   39  Occ=0.000000D+00  E= 2.151196D+00
              MO Center= -8.8D-02,  2.6D-02,  3.6D-02, r^2= 1.1D+00
   Bfn.  Coefficient  Atom+Function         Bfn.  Coefficient  Atom+Function  
  ----- ------------  ---------------      ----- ------------  ---------------
    28      1.841733  1 O  dyz               34     -0.898325  1 O  dyz        
    25      0.636018  1 O  dxy               50     -0.620640  1 O  fxyz       
    26      0.544017  1 O  dxz               54      0.331254  1 O  fyzz       
    31     -0.310225  1 O  dxy               32     -0.265350  1 O  dxz        
    47     -0.251515  1 O  fxxy              24      0.205833  1 O  dxx        

 Vector   40  Occ=0.000000D+00  E= 2.151197D+00
              MO Center= -8.8D-02,  2.6D-02,  3.6D-02, r^2= 1.1D+00
   Bfn.  Coefficient  Atom+Function         Bfn.  Coefficient  Atom+Function  
  ----- ------------  ---------------      ----- ------------  ---------------
    27      0.938222  1 O  dyy               29     -0.893206  1 O  dzz        
    26     -0.675893  1 O  dxz               25      0.636397  1 O  dxy        
    33     -0.457623  1 O  dyy               35      0.435667  1 O  dzz        
    32      0.329671  1 O  dxz               49     -0.328054  1 O  fxyy       
    31     -0.310406  1 O  dxy               48      0.287454  1 O  fxxz       

 Vector   41  Occ=0.000000D+00  E= 2.296490D+00
              MO Center=  4.3D-02, -1.3D-02, -1.8D-02, r^2= 1.4D+00
   Bfn.  Coefficient  Atom+Function         Bfn.  Coefficient  Atom+Function  
  ----- ------------  ---------------      ----- ------------  ---------------
    50      1.398290  1 O  fxyz              49      1.360392  1 O  fxyy       
    25     -1.260832  1 O  dxy               31      1.171653  1 O  dxy        
    47     -0.764755  1 O  fxxy              52      0.739879  1 O  fyyy       
    13     -0.662935  1 O  py                54      0.621260  1 O  fyzz       
    53     -0.548008  1 O  fyyz              28      0.524959  1 O  dyz        

 Vector   42  Occ=0.000000D+00  E= 2.296490D+00
              MO Center=  4.3D-02, -1.3D-02, -1.8D-02, r^2= 1.4D+00
   Bfn.  Coefficient  Atom+Function         Bfn.  Coefficient  Atom+Function  
  ----- ------------  ---------------      ----- ------------  ---------------
    51      1.789233  1 O  fxzz              26     -1.091112  1 O  dxz        
    32      1.013937  1 O  dxz               50      0.912042  1 O  fxyz       
    53      0.717142  1 O  fyyz              14     -0.636523  1 O  pz         
    55      0.554680  1 O  fzzz              29      0.539092  1 O  dzz        
    24     -0.533455  1 O  dxx               35     -0.500961  1 O  dzz        

 Vector   43  Occ=0.000000D+00  E= 2.353399D+00
              MO Center=  2.1D-02, -6.2D-03, -8.6D-03, r^2= 1.5D+00
   Bfn.  Coefficient  Atom+Function         Bfn.  Coefficient  Atom+Function  
  ----- ------------  ---------------      ----- ------------  ---------------
    50      2.913802  1 O  fxyz              54     -1.555200  1 O  fyzz       
    47      1.180783  1 O  fxxy              79      1.119002  2 H  dyz        
    34     -1.020738  1 O  dyz               48      0.943012  1 O  fxxz       
    53     -0.943088  1 O  fyyz              49     -0.808172  1 O  fxyy       
    28      0.491934  1 O  dyz               51     -0.459466  1 O  fxzz       

 Vector   44  Occ=0.000000D+00  E= 2.353403D+00
              MO Center=  2.1D-02, -6.2D-03, -8.6D-03, r^2= 1.5D+00
   Bfn.  Coefficient  Atom+Function         Bfn.  Coefficient  Atom+Function  
  ----- ------------  ---------------      ----- ------------  ---------------
    49      1.540070  1 O  fxyy              48     -1.349463  1 O  fxxz       
    47      1.333759  1 O  fxxy              51     -1.262882  1 O  fxzz       
    53     -0.913300  1 O  fyyz              55      0.754254  1 O  fzzz       
    52     -0.568961  1 O  fyyy              78      0.570043  2 H  dyy        
    80     -0.542697  2 H  dzz               33     -0.519990  1 O  dyy        

 Vector   45  Occ=0.000000D+00  E= 2.376805D+00
              MO Center= -6.3D-01,  1.9D-01,  2.6D-01, r^2= 2.2D+00
   Bfn.  Coefficient  Atom+Function         Bfn.  Coefficient  Atom+Function  
  ----- ------------  ---------------      ----- ------------  ---------------
     4      5.528185  1 O  s                 12      3.068885  1 O  px         
    33     -3.074096  1 O  dyy               35     -3.055943  1 O  dzz        
    30     -2.871891  1 O  dxx                2     -2.131984  1 O  s          
    66      1.648723  2 H  px                 3     -1.580530  1 O  s          
    46     -1.524632  1 O  fxxx              75      1.522094  2 H  dxx        

 Vector   46  Occ=0.000000D+00  E= 2.643677D+00
              MO Center= -9.4D-02,  2.8D-02,  3.9D-02, r^2= 2.2D+00
   Bfn.  Coefficient  Atom+Function         Bfn.  Coefficient  Atom+Function  
  ----- ------------  ---------------      ----- ------------  ---------------
    58     10.693849  2 H  s                 57     10.306217  2 H  s          
    12      8.884387  1 O  px                 5     -5.096798  1 O  s          
     4     -5.009185  1 O  s                 30     -4.236354  1 O  dxx        
    14     -3.654577  1 O  pz                32      3.085034  1 O  dxz        
    13     -2.624527  1 O  py                49     -2.272312  1 O  fxyy       

 Vector   47  Occ=0.000000D+00  E= 2.816194D+00
              MO Center= -2.7D-01,  7.8D-02,  1.1D-01, r^2= 1.8D+00
   Bfn.  Coefficient  Atom+Function         Bfn.  Coefficient  Atom+Function  
  ----- ------------  ---------------      ----- ------------  ---------------
    64      3.398366  2 H  py                50      2.940008  1 O  fxyz       
    47     -2.528629  1 O  fxxy              13     -2.470099  1 O  py         
    31      2.217814  1 O  dxy               49      2.223730  1 O  fxyy       
    76      2.131390  2 H  dxy               25      1.586738  1 O  dxy        
    67      1.147539  2 H  py                63      1.130320  2 H  px         

 Vector   48  Occ=0.000000D+00  E= 2.816194D+00
              MO Center= -2.7D-01,  7.8D-02,  1.1D-01, r^2= 1.8D+00
   Bfn.  Coefficient  Atom+Function         Bfn.  Coefficient  Atom+Function  
  ----- ------------  ---------------      ----- ------------  ---------------
    65      3.329635  2 H  pz                51      2.916735  1 O  fxzz       
    14     -2.420142  1 O  pz                48     -2.145650  1 O  fxxz       
    32      2.062573  1 O  dxz               77      1.982198  2 H  dxz        
    26      1.475670  1 O  dxz               47      1.409368  1 O  fxxy       
    50      1.215086  1 O  fxyz              63      1.166116  2 H  px         

 Vector   49  Occ=0.000000D+00  E= 2.991206D+00
              MO Center= -3.5D-01,  1.0D-01,  1.5D-01, r^2= 2.0D+00
   Bfn.  Coefficient  Atom+Function         Bfn.  Coefficient  Atom+Function  
  ----- ------------  ---------------      ----- ------------  ---------------
     4     15.069450  1 O  s                 57    -10.604067  2 H  s          
    58     -8.734161  2 H  s                 63     -7.552648  2 H  px         
     5      5.134353  1 O  s                 49     -4.167204  1 O  fxyy       
    51     -4.054761  1 O  fxzz              46     -3.829540  1 O  fxxx       
     9     -3.588871  1 O  px                65      3.106769  2 H  pz         

 Vector   50  Occ=0.000000D+00  E= 3.804572D+00
              MO Center= -7.4D-01,  2.2D-01,  3.0D-01, r^2= 1.7D+00
   Bfn.  Coefficient  Atom+Function         Bfn.  Coefficient  Atom+Function  
  ----- ------------  ---------------      ----- ------------  ---------------
     4     12.948878  1 O  s                 58      8.369834  2 H  s          
    57     -6.957100  2 H  s                 63     -3.271063  2 H  px         
    12     -2.738540  1 O  px                78     -2.472342  2 H  dyy        
    80     -2.455276  2 H  dzz                5     -2.285748  1 O  s          
    75     -2.282245  2 H  dxx               56     -2.150801  2 H  s          

 Vector   51  Occ=0.000000D+00  E= 3.992597D+00
              MO Center=  5.9D-02, -1.7D-02, -2.4D-02, r^2= 2.9D+00
   Bfn.  Coefficient  Atom+Function         Bfn.  Coefficient  Atom+Function  
  ----- ------------  ---------------      ----- ------------  ---------------
     4     21.506980  1 O  s                 27     -6.500880  1 O  dyy        
    29     -6.496247  1 O  dzz               24     -6.449278  1 O  dxx        
    30     -4.897922  1 O  dxx               33     -4.693248  1 O  dyy        
    35     -4.711622  1 O  dzz                3     -4.459886  1 O  s          
     5      4.039191  1 O  s                 58     -1.027551  2 H  s          

 Vector   52  Occ=0.000000D+00  E= 3.998898D+00
              MO Center= -8.1D-01,  2.4D-01,  3.3D-01, r^2= 7.3D-01
   Bfn.  Coefficient  Atom+Function         Bfn.  Coefficient  Atom+Function  
  ----- ------------  ---------------      ----- ------------  ---------------
    73      1.815786  2 H  dyz               50      0.920187  1 O  fxyz       
    70      0.627115  2 H  dxy               71      0.536279  2 H  dxz        
    54     -0.491115  1 O  fyzz              79     -0.491397  2 H  dyz        
    28     -0.406159  1 O  dyz               47      0.372946  1 O  fxxy       
    48      0.297746  1 O  fxxz              53     -0.297864  1 O  fyyz       

 Vector   53  Occ=0.000000D+00  E= 3.998898D+00
              MO Center= -8.1D-01,  2.4D-01,  3.3D-01, r^2= 7.3D-01
   Bfn.  Coefficient  Atom+Function         Bfn.  Coefficient  Atom+Function  
  ----- ------------  ---------------      ----- ------------  ---------------
    72      0.925016  2 H  dyy               74     -0.880615  2 H  dzz        
    71     -0.666420  2 H  dxz               70      0.627362  2 H  dxy        
    49      0.486388  1 O  fxyy              48     -0.426200  1 O  fxxz       
    47      0.421151  1 O  fxxy              51     -0.398799  1 O  fxzz       
    53     -0.288381  1 O  fyyz              78     -0.250332  2 H  dyy        

 Vector   54  Occ=0.000000D+00  E= 4.245541D+00
              MO Center= -8.6D-01,  2.5D-01,  3.5D-01, r^2= 7.3D-01
   Bfn.  Coefficient  Atom+Function         Bfn.  Coefficient  Atom+Function  
  ----- ------------  ---------------      ----- ------------  ---------------
    65      1.572422  2 H  pz                64      1.365046  2 H  py         
    14     -1.080283  1 O  pz                63      1.050060  2 H  px         
    13     -0.937812  1 O  py                62     -0.910440  2 H  pz         
    61     -0.790369  2 H  py                12     -0.721410  1 O  px         
    32      0.724005  1 O  dxz               30      0.666603  1 O  dxx        

 Vector   55  Occ=0.000000D+00  E= 4.245541D+00
              MO Center= -8.6D-01,  2.5D-01,  3.5D-01, r^2= 7.3D-01
   Bfn.  Coefficient  Atom+Function         Bfn.  Coefficient  Atom+Function  
  ----- ------------  ---------------      ----- ------------  ---------------
    64      1.788132  2 H  py                65     -1.494518  2 H  pz         
    13     -1.228479  1 O  py                31      1.151377  1 O  dxy        
    61     -1.035337  2 H  py                14      1.026761  1 O  pz         
    32     -0.926158  1 O  dxz               76      0.901822  2 H  dxy        
    62      0.865334  2 H  pz                77     -0.725418  2 H  dxz        

 Vector   56  Occ=0.000000D+00  E= 4.854505D+00
              MO Center= -5.6D-01,  1.7D-01,  2.3D-01, r^2= 1.4D+00
   Bfn.  Coefficient  Atom+Function         Bfn.  Coefficient  Atom+Function  
  ----- ------------  ---------------      ----- ------------  ---------------
     4      7.045235  1 O  s                 57     -2.980146  2 H  s          
    12      2.266324  1 O  px                27     -2.271349  1 O  dyy        
    33     -2.231736  1 O  dyy               46     -2.221609  1 O  fxxx       
    35     -2.192861  1 O  dzz               29     -2.178844  1 O  dzz        
    48      1.999062  1 O  fxxz              30     -1.798712  1 O  dxx        

 Vector   57  Occ=0.000000D+00  E= 4.880415D+00
              MO Center= -4.5D-01,  1.3D-01,  1.8D-01, r^2= 1.1D+00
   Bfn.  Coefficient  Atom+Function         Bfn.  Coefficient  Atom+Function  
  ----- ------------  ---------------      ----- ------------  ---------------
    50      2.038735  1 O  fxyz              47     -1.791574  1 O  fxxy       
    64      1.520687  2 H  py                46     -1.448522  1 O  fxxx       
    70      1.323885  2 H  dxy               54     -1.233345  1 O  fyzz       
    25      1.225684  1 O  dxy               65      1.104502  2 H  pz         
    73     -1.005042  2 H  dyz               53     -0.997622  1 O  fyyz       

 Vector   58  Occ=0.000000D+00  E= 4.880415D+00
              MO Center= -4.5D-01,  1.3D-01,  1.8D-01, r^2= 1.1D+00
   Bfn.  Coefficient  Atom+Function         Bfn.  Coefficient  Atom+Function  
  ----- ------------  ---------------      ----- ------------  ---------------
    47      2.302159  1 O  fxxy              48     -2.290708  1 O  fxxz       
    65      1.594759  2 H  pz                71      1.567989  2 H  dxz        
    70     -1.473855  2 H  dxy               26      1.451681  1 O  dxz        
    51      1.428876  1 O  fxzz              25     -1.364530  1 O  dxy        
    64     -1.316929  2 H  py                49     -1.074938  1 O  fxyy       

 Vector   59  Occ=0.000000D+00  E= 5.349212D+00
              MO Center= -1.6D-01,  4.7D-02,  6.5D-02, r^2= 8.7D-01
   Bfn.  Coefficient  Atom+Function         Bfn.  Coefficient  Atom+Function  
  ----- ------------  ---------------      ----- ------------  ---------------
    11      1.814783  1 O  pz                14      1.646087  1 O  pz         
    51     -1.611557  1 O  fxzz              55     -1.240091  1 O  fzzz       
    49     -1.199128  1 O  fxyy              10      1.170803  1 O  py         
    53     -1.161382  1 O  fyyz               9      1.092373  1 O  px         
    13      1.061969  1 O  py                50     -1.025568  1 O  fxyz       

 Vector   60  Occ=0.000000D+00  E= 5.349212D+00
              MO Center= -1.6D-01,  4.7D-02,  6.5D-02, r^2= 8.7D-01
   Bfn.  Coefficient  Atom+Function         Bfn.  Coefficient  Atom+Function  
  ----- ------------  ---------------      ----- ------------  ---------------
    10      2.019874  1 O  py                13      1.832114  1 O  py         
    54     -1.567863  1 O  fyzz              52     -1.476138  1 O  fyyy       
    11     -1.332381  1 O  pz                53      1.258155  1 O  fyyz       
    14     -1.208528  1 O  pz                 7     -1.129561  1 O  py         
    70     -0.968937  2 H  dxy               55      0.910452  1 O  fzzz       

 Vector   61  Occ=0.000000D+00  E= 5.400177D+00
              MO Center= -5.5D-01,  1.6D-01,  2.3D-01, r^2= 1.1D+00
   Bfn.  Coefficient  Atom+Function         Bfn.  Coefficient  Atom+Function  
  ----- ------------  ---------------      ----- ------------  ---------------
    57      8.253661  2 H  s                 63      5.490030  2 H  px         
     4     -3.078726  1 O  s                 24     -3.042061  1 O  dxx        
    49      2.836604  1 O  fxyy              51      2.716573  1 O  fxzz       
    46      2.476155  1 O  fxxx              65     -2.258314  2 H  pz         
     3     -1.663867  1 O  s                  9      1.660394  1 O  px         

 Vector   62  Occ=0.000000D+00  E= 5.851571D+00
              MO Center= -3.8D-01,  1.1D-01,  1.6D-01, r^2= 1.6D+00
   Bfn.  Coefficient  Atom+Function         Bfn.  Coefficient  Atom+Function  
  ----- ------------  ---------------      ----- ------------  ---------------
    58     12.601722  2 H  s                 57     11.394333  2 H  s          
     5     -5.272346  1 O  s                 12      4.708503  1 O  px         
    63      3.546320  2 H  px                24     -2.949737  1 O  dxx        
    66      2.527834  2 H  px                30     -2.439490  1 O  dxx        
     9      2.181034  1 O  px                78     -2.145554  2 H  dyy        

 Vector   63  Occ=0.000000D+00  E= 6.288782D+00
              MO Center= -3.6D-11, -6.4D-11, -4.1D-11, r^2= 5.4D-01
   Bfn.  Coefficient  Atom+Function         Bfn.  Coefficient  Atom+Function  
  ----- ------------  ---------------      ----- ------------  ---------------
    43      1.961917  1 O  fyyz              44     -1.612019  1 O  fyzz       
    39      1.189575  1 O  fxyy              41     -1.088844  1 O  fxzz       
    53     -0.918025  1 O  fyyz              54      0.754298  1 O  fyzz       
    49     -0.556629  1 O  fxyy              51      0.509495  1 O  fxzz       
    45     -0.496445  1 O  fzzz              38     -0.472566  1 O  fxxz       

 Vector   64  Occ=0.000000D+00  E= 6.288782D+00
              MO Center=  4.8D-11,  8.5D-11,  5.6D-11, r^2= 5.4D-01
   Bfn.  Coefficient  Atom+Function         Bfn.  Coefficient  Atom+Function  
  ----- ------------  ---------------      ----- ------------  ---------------
    40      2.289595  1 O  fxyz              44      1.728252  1 O  fyzz       
    43      1.468768  1 O  fyyz              50     -1.071357  1 O  fxyz       
    54     -0.808687  1 O  fyzz              42     -0.728932  1 O  fyyy       
    53     -0.687268  1 O  fyyz              45     -0.575018  1 O  fzzz       
    37      0.458558  1 O  fxxy              52      0.341087  1 O  fyyy       

 Vector   65  Occ=0.000000D+00  E= 6.425091D+00
              MO Center= -4.4D-02,  1.3D-02,  1.8D-02, r^2= 5.9D-01
   Bfn.  Coefficient  Atom+Function         Bfn.  Coefficient  Atom+Function  
  ----- ------------  ---------------      ----- ------------  ---------------
    40      2.882360  1 O  fxyz              50     -1.602759  1 O  fxyz       
    44     -1.538273  1 O  fyzz              37      1.168378  1 O  fxxy       
    38      0.932438  1 O  fxxz              43     -0.933139  1 O  fyyz       
    54      0.855369  1 O  fyzz              39     -0.799004  1 O  fxyy       
    47     -0.649686  1 O  fxxy              48     -0.518490  1 O  fxxz       

 Vector   66  Occ=0.000000D+00  E= 6.425092D+00
              MO Center= -4.4D-02,  1.3D-02,  1.8D-02, r^2= 5.9D-01
   Bfn.  Coefficient  Atom+Function         Bfn.  Coefficient  Atom+Function  
  ----- ------------  ---------------      ----- ------------  ---------------
    39      1.523636  1 O  fxyy              38     -1.335128  1 O  fxxz       
    37      1.319007  1 O  fxxy              41     -1.249096  1 O  fxzz       
    43     -0.903161  1 O  fyyz              49     -0.847231  1 O  fxyy       
    45      0.746097  1 O  fzzz              48      0.742410  1 O  fxxz       
    47     -0.733445  1 O  fxxy              51      0.694570  1 O  fxzz       

 Vector   67  Occ=0.000000D+00  E= 6.616018D+00
              MO Center= -3.1D-01,  9.1D-02,  1.3D-01, r^2= 1.2D+00
   Bfn.  Coefficient  Atom+Function         Bfn.  Coefficient  Atom+Function  
  ----- ------------  ---------------      ----- ------------  ---------------
    58      5.187577  2 H  s                 12     -4.196524  1 O  px         
     4      3.239011  1 O  s                 57     -3.005553  2 H  s          
    78     -2.404061  2 H  dyy               80     -2.352769  2 H  dzz        
    48      2.199919  1 O  fxxz              30      2.083921  1 O  dxx        
    69     -2.081830  2 H  dxx                5     -2.050787  1 O  s          

 Vector   68  Occ=0.000000D+00  E= 6.762955D+00
              MO Center=  2.5D-02, -7.5D-03, -1.0D-02, r^2= 4.0D-01
   Bfn.  Coefficient  Atom+Function         Bfn.  Coefficient  Atom+Function  
  ----- ------------  ---------------      ----- ------------  ---------------
    22      1.845936  1 O  dyz               28     -1.303572  1 O  dyz        
    19      0.637450  1 O  dxy               34      0.574760  1 O  dyz        
    20      0.545284  1 O  dxz               25     -0.450157  1 O  dxy        
    40      0.438233  1 O  fxyz              26     -0.385072  1 O  dxz        
    44     -0.233901  1 O  fyzz              50     -0.224072  1 O  fxyz       

 Vector   69  Occ=0.000000D+00  E= 6.762956D+00
              MO Center=  2.5D-02, -7.5D-03, -1.0D-02, r^2= 4.0D-01
   Bfn.  Coefficient  Atom+Function         Bfn.  Coefficient  Atom+Function  
  ----- ------------  ---------------      ----- ------------  ---------------
    21      0.940361  1 O  dyy               23     -0.895250  1 O  dzz        
    20     -0.677420  1 O  dxz               27     -0.664069  1 O  dyy        
    19      0.637875  1 O  dxy               29      0.632212  1 O  dzz        
    26      0.478384  1 O  dxz               25     -0.450458  1 O  dxy        
    33      0.292796  1 O  dyy               35     -0.278750  1 O  dzz        

 Vector   70  Occ=0.000000D+00  E= 6.938647D+00
              MO Center= -1.1D-01,  3.4D-02,  4.7D-02, r^2= 7.0D-01
   Bfn.  Coefficient  Atom+Function         Bfn.  Coefficient  Atom+Function  
  ----- ------------  ---------------      ----- ------------  ---------------
    40      2.563451  1 O  fxyz              39      1.559840  1 O  fxyy       
    41      1.383343  1 O  fxzz              36     -1.075631  1 O  fxxx       
    37     -1.060024  1 O  fxxy              50     -1.028985  1 O  fxyz       
    49     -0.683130  1 O  fxyy              70      0.618605  2 H  dxy        
    51     -0.612283  1 O  fxzz              13      0.608756  1 O  py         

 Vector   71  Occ=0.000000D+00  E= 6.938647D+00
              MO Center= -1.1D-01,  3.4D-02,  4.7D-02, r^2= 7.0D-01
   Bfn.  Coefficient  Atom+Function         Bfn.  Coefficient  Atom+Function  
  ----- ------------  ---------------      ----- ------------  ---------------
    41      2.043727  1 O  fxzz              37      1.793191  1 O  fxxy       
    38     -1.584504  1 O  fxxz              39     -1.092292  1 O  fxyy       
    51     -0.838791  1 O  fxzz              43      0.772707  1 O  fyyz       
    71      0.721458  2 H  dxz               44     -0.676842  1 O  fyzz       
    70     -0.654488  2 H  dxy               14      0.635659  1 O  pz         

 Vector   72  Occ=0.000000D+00  E= 6.983953D+00
              MO Center= -4.4D-02,  1.3D-02,  1.8D-02, r^2= 4.6D-01
   Bfn.  Coefficient  Atom+Function         Bfn.  Coefficient  Atom+Function  
  ----- ------------  ---------------      ----- ------------  ---------------
    25     -1.582906  1 O  dxy               19      1.508899  1 O  dxy        
    26      1.266943  1 O  dxz               20     -1.207709  1 O  dxz        
    64     -0.907118  2 H  py                47      0.794398  1 O  fxxy       
    65      0.753150  2 H  pz                76     -0.662785  2 H  dxy        
    48     -0.613339  1 O  fxxz              29     -0.533342  1 O  dzz        

 Vector   73  Occ=0.000000D+00  E= 6.983953D+00
              MO Center= -4.4D-02,  1.3D-02,  1.8D-02, r^2= 4.6D-01
   Bfn.  Coefficient  Atom+Function         Bfn.  Coefficient  Atom+Function  
  ----- ------------  ---------------      ----- ------------  ---------------
    26      0.997890  1 O  dxz               20     -0.951235  1 O  dxz        
    24      0.914773  1 O  dxx               25      0.912894  1 O  dxy        
    28     -0.892622  1 O  dyz               18     -0.872003  1 O  dxx        
    19     -0.870213  1 O  dxy               22      0.850888  1 O  dyz        
    65      0.798232  2 H  pz                50      0.763818  1 O  fxyz       

 Vector   74  Occ=0.000000D+00  E= 7.838879D+00
              MO Center= -5.2D-02,  1.5D-02,  2.1D-02, r^2= 5.8D-01
   Bfn.  Coefficient  Atom+Function         Bfn.  Coefficient  Atom+Function  
  ----- ------------  ---------------      ----- ------------  ---------------
     4      8.397066  1 O  s                 57     -3.341514  2 H  s          
    46     -2.178471  1 O  fxxx              26     -2.161040  1 O  dxz        
    27     -1.979131  1 O  dyy               63     -1.952971  2 H  px         
    48      1.808239  1 O  fxxz              29     -1.763891  1 O  dzz        
    51     -1.632569  1 O  fxzz              25     -1.551946  1 O  dxy        

 Vector   75  Occ=0.000000D+00  E= 8.535269D+00
              MO Center= -3.4D-01,  1.0D-01,  1.4D-01, r^2= 1.1D+00
   Bfn.  Coefficient  Atom+Function         Bfn.  Coefficient  Atom+Function  
  ----- ------------  ---------------      ----- ------------  ---------------
    24      5.427689  1 O  dxx               57     -4.072341  2 H  s          
    63     -3.867805  2 H  px                58      3.526939  2 H  s          
    26     -3.142206  1 O  dxz                9     -2.816802  1 O  px         
    56     -2.756646  2 H  s                  3      2.452544  1 O  s          
    69     -2.428156  2 H  dxx               25     -2.256569  1 O  dxy        

 Vector   76  Occ=0.000000D+00  E= 1.289640D+01
              MO Center= -2.8D-01,  8.3D-02,  1.1D-01, r^2= 1.0D+00
   Bfn.  Coefficient  Atom+Function         Bfn.  Coefficient  Atom+Function  
  ----- ------------  ---------------      ----- ------------  ---------------
     2     11.364003  1 O  s                  4     10.812851  1 O  s          
     1      6.069009  1 O  s                 57     -5.285605  2 H  s          
     3     -4.285647  1 O  s                 27     -3.897561  1 O  dyy        
    29     -3.745533  1 O  dzz               63     -3.533048  2 H  px         
    24     -2.204134  1 O  dxx               36     -2.093954  1 O  fxxx       

 Vector   77  Occ=0.000000D+00  E= 1.309372D+01
              MO Center=  7.5D-03, -2.2D-03, -3.1D-03, r^2= 1.4D+00
   Bfn.  Coefficient  Atom+Function         Bfn.  Coefficient  Atom+Function  
  ----- ------------  ---------------      ----- ------------  ---------------
    11     10.299857  1 O  pz                10     10.123689  1 O  py         
     9      7.227456  1 O  px                38     -5.125949  1 O  fxxz       
    43     -5.134714  1 O  fyyz              45     -5.148960  1 O  fzzz       
    42     -5.068203  1 O  fyyy              37     -5.024401  1 O  fxxy       
    44     -5.038830  1 O  fyzz              39     -3.670980  1 O  fxyy       

 Vector   78  Occ=0.000000D+00  E= 1.309372D+01
              MO Center=  7.5D-03, -2.2D-03, -3.1D-03, r^2= 1.4D+00
   Bfn.  Coefficient  Atom+Function         Bfn.  Coefficient  Atom+Function  
  ----- ------------  ---------------      ----- ------------  ---------------
    10     11.840982  1 O  py                11    -10.936270  1 O  pz         
    42     -5.927929  1 O  fyyy              44     -5.942800  1 O  fyzz       
    37     -5.827471  1 O  fxxy              43      5.500364  1 O  fyyz       
    45      5.467107  1 O  fzzz              38      5.394290  1 O  fxxz       
    47     -3.232346  1 O  fxxy              52     -3.241928  1 O  fyyy       

 Vector   79  Occ=0.000000D+00  E= 1.469805D+01
              MO Center= -4.7D-02,  1.4D-02,  1.9D-02, r^2= 1.4D+00
   Bfn.  Coefficient  Atom+Function         Bfn.  Coefficient  Atom+Function  
  ----- ------------  ---------------      ----- ------------  ---------------
     9     15.664375  1 O  px                12      7.995745  1 O  px         
    39     -7.704525  1 O  fxyy              41     -7.621385  1 O  fxzz       
    36     -7.454858  1 O  fxxx              11     -6.443513  1 O  pz         
    58      6.381197  2 H  s                 49     -5.190037  1 O  fxyy       
    51     -5.070732  1 O  fxzz              46     -4.831766  1 O  fxxx       

 Vector   80  Occ=0.000000D+00  E= 1.697804D+01
              MO Center= -7.5D-03,  2.2D-03,  3.1D-03, r^2= 4.4D-01
   Bfn.  Coefficient  Atom+Function         Bfn.  Coefficient  Atom+Function  
  ----- ------------  ---------------      ----- ------------  ---------------
     4     10.158394  1 O  s                  2      9.105257  1 O  s          
    27     -4.774836  1 O  dyy               29     -4.759570  1 O  dzz        
    24     -4.604785  1 O  dxx               21     -3.662459  1 O  dyy        
    23     -3.659611  1 O  dzz               18     -3.630737  1 O  dxx        
     1      3.242222  1 O  s                 30     -1.879496  1 O  dxx        


 center of mass
 --------------
 x =  -0.09866670 y =   0.02914702 z =   0.04058637

 moments of inertia (a.u.)
 ------------------
           0.673751379487           0.776033042020           1.080603338082
           0.776033042020           3.071483505012          -0.319219846595
           1.080603338082          -0.319219846595           2.856226264672

     Multipole analysis of the density
     ---------------------------------

     L   x y z        total         alpha         beta         nuclear
     -   - - -        -----         -----         ----         -------
     0   0 0 0     -1.000000     -5.000000     -5.000000      9.000000

     1   1 0 0     -0.266309      0.699135      0.699135     -1.664578
     1   0 1 0      0.078670     -0.206531     -0.206531      0.491731
     1   0 0 1      0.109546     -0.287588     -0.287588      0.684721

     2   2 0 0     -6.787658     -4.779240     -4.779240      2.770821
     2   1 1 0     -0.509785      0.154370      0.154370     -0.818525
     2   1 0 1     -0.709860      0.214956      0.214956     -1.139772
     2   0 2 0     -8.362757     -4.302278     -4.302278      0.241800
     2   0 1 1      0.209701     -0.063499     -0.063499      0.336699
     2   0 0 2     -8.221351     -4.345097     -4.345097      0.468843


            General Information
            -------------------
          SCF calculation type: DFT
          Wavefunction type:  closed shell.
          No. of atoms     :     2
          No. of electrons :    10
           Alpha electrons :     5
            Beta electrons :     5
          Charge           :    -1
          Spin multiplicity:     1
          Use of symmetry is: off; symmetry adaption is: off
          Maximum number of iterations: 200
          AO basis - number of functions:    80
                     number of shells:    23
          Convergence on energy requested:  1.00D-06
          Convergence on density requested:  1.00D-05
          Convergence on gradient requested:  5.00D-04

              XC Information
              --------------
          PerdewBurkeErnzerhof Exchange Functional  1.000          
            Perdew 1991 LDA Correlation Functional  1.000 local    
           PerdewBurkeErnz. Correlation Functional  1.000 non-local

             Grid Information
             ----------------
          Grid used for XC integration:  medium    
          Radial quadrature: Mura-Knowles        
          Angular quadrature: Lebedev. 
          Tag              B.-S. Rad. Rad. Pts. Rad. Cut. Ang. Pts.
          ---              ---------- --------- --------- ---------
          O                   0.60       49          10.0       434
          H                   0.35       45          10.0       434
          Grid pruning is: on 
          Number of quadrature shells:    94
          Spatial weights used:  Erf1

          Convergence Information
          -----------------------
          Convergence aids based upon iterative change in 
          total energy or number of iterations. 
          Levelshifting, if invoked, occurs when the 
          HOMO/LUMO gap drops below (HL_TOL):  1.00D-02
          DIIS, if invoked, will attempt to extrapolate 
          using up to (NFOCK): 10 stored Fock matrices.

                    Damping(40%)  Levelshifting(0.0)       DIIS
                  --------------- ------------------- ---------------
          dE  on:    start            ASAP                start   
          dE off:  200 iters        200 iters           200 iters 


      Screening Tolerance Information
      -------------------------------
          Density screening/tol_rho:  1.00D-10
          AO Gaussian exp screening on grid/accAOfunc:  14
          CD Gaussian exp screening on grid/accCDfunc:  20
          XC Gaussian exp screening on grid/accXCfunc:  20
          Schwarz screening/accCoul:  1.00D-08



                            NWChem DFT Gradient Module
                            --------------------------



  charge          =  -1.00
  wavefunction    = closed shell



                         DFT ENERGY GRADIENTS

    atom               coordinates                        gradient
                 x          y          z           x          y          z
   1 O       0.000000   0.000000   0.000000    0.009965  -0.002944  -0.004099
   2 H      -1.664578   0.491731   0.684721   -0.009965   0.002944   0.004099

                 ----------------------------------------
                 |  Time  |  1-e(secs)   |  2-e(secs)   |
                 ----------------------------------------
                 |  CPU   |       0.00   |       0.13   |
                 ----------------------------------------
                 |  WALL  |       0.00   |       0.13   |
                 ----------------------------------------

@ Step       Energy      Delta E   Gmax     Grms     Xrms     Xmax   Walltime
@ ---- ---------------- -------- -------- -------- -------- -------- --------
@    0     -75.75562208  0.0D+00  0.00997  0.00645  0.00000  0.00000      1.4
                                                                    


                                 NWChem DFT Module
                                 -----------------




 Summary of "ao basis" -> "ao basis" (cartesian)
 ------------------------------------------------------------------------------
       Tag                 Description            Shells   Functions and Types
 ---------------- ------------------------------  ------  ---------------------
 O                        aug-cc-pVTZ               14       55   5s4p3d2f
 H                        aug-cc-pVTZ                9       25   4s3p2d


  Caching 1-el integrals 

            General Information
            -------------------
          SCF calculation type: DFT
          Wavefunction type:  closed shell.
          No. of atoms     :     2
          No. of electrons :    10
           Alpha electrons :     5
            Beta electrons :     5
          Charge           :    -1
          Spin multiplicity:     1
          Use of symmetry is: off; symmetry adaption is: off
          Maximum number of iterations: 200
          AO basis - number of functions:    80
                     number of shells:    23
          Convergence on energy requested:  1.00D-06
          Convergence on density requested:  1.00D-05
          Convergence on gradient requested:  5.00D-04

              XC Information
              --------------
          PerdewBurkeErnzerhof Exchange Functional  1.000          
            Perdew 1991 LDA Correlation Functional  1.000 local    
           PerdewBurkeErnz. Correlation Functional  1.000 non-local

             Grid Information
             ----------------
          Grid used for XC integration:  medium    
          Radial quadrature: Mura-Knowles        
          Angular quadrature: Lebedev. 
          Tag              B.-S. Rad. Rad. Pts. Rad. Cut. Ang. Pts.
          ---              ---------- --------- --------- ---------
          O                   0.60       49          10.0       434
          H                   0.35       45          10.0       434
          Grid pruning is: on 
          Number of quadrature shells:    94
          Spatial weights used:  Erf1

          Convergence Information
          -----------------------
          Convergence aids based upon iterative change in 
          total energy or number of iterations. 
          Levelshifting, if invoked, occurs when the 
          HOMO/LUMO gap drops below (HL_TOL):  1.00D-02
          DIIS, if invoked, will attempt to extrapolate 
          using up to (NFOCK): 10 stored Fock matrices.

                    Damping(40%)  Levelshifting(0.0)       DIIS
                  --------------- ------------------- ---------------
          dE  on:    start            ASAP                start   
          dE off:  200 iters        200 iters           200 iters 


      Screening Tolerance Information
      -------------------------------
          Density screening/tol_rho:  1.00D-10
          AO Gaussian exp screening on grid/accAOfunc:  14
          CD Gaussian exp screening on grid/accCDfunc:  20
          XC Gaussian exp screening on grid/accXCfunc:  20
          Schwarz screening/accCoul:  1.00D-08


 Forcing the number of linearly dependent vectors to be  0

 Loading old vectors from job with title :



   Time after variat. SCF:      1.4
   Time prior to 1st pass:      1.4

 Grid_pts file          = /jet/home/hmt47/nwchem_scratch//dft.gridpts.00
 Record size in doubles =  12289        No. of grid_pts per rec  =   3070
 Max. records in memory =      2        Max. recs in file   =  67550051


           Memory utilization after 1st SCF pass: 
           Heap Space remaining (MW):       33.53            33527054
          Stack Space remaining (MW):       67.11            67108340

   convergence    iter        energy       DeltaE   RMS-Dens  Diis-err    time
 ---------------- ----- ----------------- --------- --------- ---------  ------
 d=40,ls=0.0,diis     1    -75.7556496096 -8.01D+01  3.58D-04  1.16D-03     1.5
[...]
   Bfn.  Coefficient  Atom+Function         Bfn.  Coefficient  Atom+Function  
  ----- ------------  ---------------      ----- ------------  ---------------
    41      1.866176  1 O  fxzz              37      1.694811  1 O  fxxy       
    38     -1.461918  1 O  fxxz              39     -1.063570  1 O  fxyy       
    26      1.032700  1 O  dxz               25     -0.979880  1 O  dxy        
    71      0.793383  2 H  dxz               70     -0.752803  2 H  dxy        
    43      0.742835  1 O  fyyz              44     -0.631462  1 O  fyzz       

 Vector   72  Occ=0.000000D+00  E= 6.992124D+00
              MO Center= -1.3D-01,  3.8D-02,  5.3D-02, r^2= 4.9D-01
   Bfn.  Coefficient  Atom+Function         Bfn.  Coefficient  Atom+Function  
  ----- ------------  ---------------      ----- ------------  ---------------
    19      1.412147  1 O  dxy               25     -1.276701  1 O  dxy        
    20     -1.098573  1 O  dxz               64     -1.048710  2 H  py         
    47      0.998549  1 O  fxxy              26      0.993203  1 O  dxz        
    65      0.838303  2 H  pz                37     -0.797574  1 O  fxxy       
    76     -0.801018  2 H  dxy               48     -0.751802  1 O  fxxz       

 Vector   73  Occ=0.000000D+00  E= 6.992124D+00
              MO Center= -1.3D-01,  3.8D-02,  5.3D-02, r^2= 4.9D-01
   Bfn.  Coefficient  Atom+Function         Bfn.  Coefficient  Atom+Function  
  ----- ------------  ---------------      ----- ------------  ---------------
    50      1.049280  1 O  fxyz              65      0.926342  2 H  pz         
    40     -0.912706  1 O  fxyz              20     -0.902920  1 O  dxz        
    26      0.816316  1 O  dxz               18     -0.807737  1 O  dxx        
    22      0.782133  1 O  dyz               19     -0.775734  1 O  dxy        
    64      0.760724  2 H  py                24      0.730262  1 O  dxx        

 Vector   74  Occ=0.000000D+00  E= 7.878524D+00
              MO Center= -6.1D-02,  1.8D-02,  2.5D-02, r^2= 5.8D-01
   Bfn.  Coefficient  Atom+Function         Bfn.  Coefficient  Atom+Function  
  ----- ------------  ---------------      ----- ------------  ---------------
     4      8.436810  1 O  s                 57     -3.252292  2 H  s          
    46     -2.199195  1 O  fxxx              26     -2.131534  1 O  dxz        
    27     -2.029425  1 O  dyy               63     -1.865058  2 H  px         
    48      1.834346  1 O  fxxz              29     -1.817124  1 O  dzz        
    51     -1.642769  1 O  fxzz              25     -1.530757  1 O  dxy        

 Vector   75  Occ=0.000000D+00  E= 8.608040D+00
              MO Center= -3.5D-01,  1.0D-01,  1.4D-01, r^2= 1.1D+00
   Bfn.  Coefficient  Atom+Function         Bfn.  Coefficient  Atom+Function  
  ----- ------------  ---------------      ----- ------------  ---------------
    24      5.582312  1 O  dxx               57     -4.131594  2 H  s          
    58      3.989056  2 H  s                 63     -3.865886  2 H  px         
    26     -3.230483  1 O  dxz               56     -3.022496  2 H  s          
     9     -2.923635  1 O  px                 3      2.553999  1 O  s          
    69     -2.468759  2 H  dxx               25     -2.319964  1 O  dxy        

 Vector   76  Occ=0.000000D+00  E= 1.309675D+01
              MO Center=  1.7D-03, -5.0D-04, -6.9D-04, r^2= 1.4D+00
   Bfn.  Coefficient  Atom+Function         Bfn.  Coefficient  Atom+Function  
  ----- ------------  ---------------      ----- ------------  ---------------
    10     10.431847  1 O  py                11     10.013959  1 O  pz         
     9      7.200885  1 O  px                42     -5.222005  1 O  fyyy       
    37     -5.173658  1 O  fxxy              44     -5.191818  1 O  fyzz       
    38     -4.983298  1 O  fxxz              43     -4.989545  1 O  fyyz       
    45     -5.005285  1 O  fzzz              39     -3.661212  1 O  fxyy       

 Vector   77  Occ=0.000000D+00  E= 1.309675D+01
              MO Center=  1.7D-03, -5.0D-04, -6.9D-04, r^2= 1.4D+00
   Bfn.  Coefficient  Atom+Function         Bfn.  Coefficient  Atom+Function  
  ----- ------------  ---------------      ----- ------------  ---------------
    10     11.576176  1 O  py                11    -11.204182  1 O  pz         
    42     -5.794836  1 O  fyyy              44     -5.811122  1 O  fyzz       
    37     -5.691403  1 O  fxxy              43      5.634444  1 O  fyyz       
    45      5.600195  1 O  fzzz              38      5.523734  1 O  fxxz       
    47     -3.160052  1 O  fxxy              52     -3.171684  1 O  fyyy       

 Vector   78  Occ=0.000000D+00  E= 1.318027D+01
              MO Center= -3.0D-01,  8.9D-02,  1.2D-01, r^2= 1.0D+00
   Bfn.  Coefficient  Atom+Function         Bfn.  Coefficient  Atom+Function  
  ----- ------------  ---------------      ----- ------------  ---------------
     2     11.580573  1 O  s                  4     11.495606  1 O  s          
     1      6.173270  1 O  s                 57     -6.087351  2 H  s          
     3     -4.179941  1 O  s                 63     -4.025919  2 H  px         
    27     -3.846112  1 O  dyy               29     -3.673840  1 O  dzz        
    36     -2.136381  1 O  fxxx              21     -1.943420  1 O  dyy        

 Vector   79  Occ=0.000000D+00  E= 1.470403D+01
              MO Center= -5.5D-02,  1.6D-02,  2.2D-02, r^2= 1.4D+00
   Bfn.  Coefficient  Atom+Function         Bfn.  Coefficient  Atom+Function  
  ----- ------------  ---------------      ----- ------------  ---------------
     9     15.649669  1 O  px                12      8.064033  1 O  px         
    39     -7.711407  1 O  fxyy              41     -7.632439  1 O  fxzz       
    36     -7.474268  1 O  fxxx              11     -6.437464  1 O  pz         
    58      6.444788  2 H  s                 49     -5.220787  1 O  fxyy       
    51     -5.098756  1 O  fxzz              46     -4.854329  1 O  fxxx       

 Vector   80  Occ=0.000000D+00  E= 1.698143D+01
              MO Center= -1.4D-02,  4.2D-03,  5.8D-03, r^2= 4.4D-01
   Bfn.  Coefficient  Atom+Function         Bfn.  Coefficient  Atom+Function  
  ----- ------------  ---------------      ----- ------------  ---------------
     4     10.167254  1 O  s                  2      9.131894  1 O  s          
    27     -4.796869  1 O  dyy               29     -4.781647  1 O  dzz        
    24     -4.627315  1 O  dxx               21     -3.668677  1 O  dyy        
    23     -3.665409  1 O  dzz               18     -3.632277  1 O  dxx        
     1      3.256437  1 O  s                 30     -1.902962  1 O  dxx        


 center of mass
 --------------
 x =  -0.10828066 y =   0.03198707 z =   0.04454106

 moments of inertia (a.u.)
 ------------------
           0.656208360834           0.755826831620           1.052466780454
           0.755826831620           2.991508763499          -0.310908056974
           1.052466780454          -0.310908056974           2.781856352918

     Multipole analysis of the density
     ---------------------------------

     L   x y z        total         alpha         beta         nuclear
     -   - - -        -----         -----         ----         -------
     0   0 0 0     -1.000000     -5.000000     -5.000000      9.000000

     1   1 0 0     -0.263009      0.738959      0.738959     -1.740927
     1   0 1 0      0.077695     -0.218295     -0.218295      0.514285
     1   0 0 1      0.108188     -0.303970     -0.303970      0.716127

     2   2 0 0     -6.768538     -4.752059     -4.752059      2.735581
     2   1 1 0     -0.512075      0.148020      0.148020     -0.808115
     2   1 0 1     -0.713049      0.206114      0.206114     -1.125276
     2   0 2 0     -8.350710     -4.294717     -4.294717      0.238724
     2   0 1 1      0.210641     -0.060888     -0.060888      0.332417
     2   0 0 2     -8.208670     -4.335775     -4.335775      0.462881

 Line search: 
     step= 1.00 grad=-8.1D-09 hess=-1.9D-07 energy=    -75.755761 mode=accept  
 new step= 1.00                   predicted energy=    -75.755761

          --------
          Step   2
          --------


                         Geometry "geometry" -> "geometry"
                         ---------------------------------

 Output coordinates in angstroms (scale by  1.889725989 to convert to a.u.)

  No.       Tag          Charge          X              Y              Z
 ---- ---------------- ---------- -------------- -------------- --------------
    1 O                    8.0000    -0.00577172     0.00170502     0.00237419
    2 H                    1.0000    -0.87508528     0.25850798     0.35996481

      Atomic Mass 
      ----------- 

      O                 15.994910
      H                  1.007825


 Effective nuclear repulsion energy (a.u.)       4.3444817165

            Nuclear Dipole moment (a.u.) 
            ----------------------------
        X                 Y               Z
 ---------------- ---------------- ----------------
    -1.7409271242     0.5142853718     0.7161273547


                                 NWChem DFT Module
                                 -----------------




 Summary of "ao basis" -> "ao basis" (cartesian)
 ------------------------------------------------------------------------------
       Tag                 Description            Shells   Functions and Types
 ---------------- ------------------------------  ------  ---------------------
 O                        aug-cc-pVTZ               14       55   5s4p3d2f
 H                        aug-cc-pVTZ                9       25   4s3p2d



  The DFT is already converged 

         Total DFT energy =    -75.755761309009


            General Information
            -------------------
          SCF calculation type: DFT
          Wavefunction type:  closed shell.
          No. of atoms     :     2
          No. of electrons :    10
           Alpha electrons :     5
            Beta electrons :     5
          Charge           :    -1
          Spin multiplicity:     1
          Use of symmetry is: off; symmetry adaption is: off
          Maximum number of iterations: 200
          AO basis - number of functions:    80
                     number of shells:    23
          Convergence on energy requested:  1.00D-06
          Convergence on density requested:  1.00D-05
          Convergence on gradient requested:  5.00D-04

              XC Information
              --------------
          PerdewBurkeErnzerhof Exchange Functional  1.000          
            Perdew 1991 LDA Correlation Functional  1.000 local    
           PerdewBurkeErnz. Correlation Functional  1.000 non-local

             Grid Information
             ----------------
          Grid used for XC integration:  medium    
          Radial quadrature: Mura-Knowles        
          Angular quadrature: Lebedev. 
          Tag              B.-S. Rad. Rad. Pts. Rad. Cut. Ang. Pts.
          ---              ---------- --------- --------- ---------
          O                   0.60       49          10.0       434
          H                   0.35       45          10.0       434
          Grid pruning is: on 
          Number of quadrature shells:    94
          Spatial weights used:  Erf1

          Convergence Information
          -----------------------
          Convergence aids based upon iterative change in 
          total energy or number of iterations. 
          Levelshifting, if invoked, occurs when the 
          HOMO/LUMO gap drops below (HL_TOL):  1.00D-02
          DIIS, if invoked, will attempt to extrapolate 
          using up to (NFOCK): 10 stored Fock matrices.

                    Damping(40%)  Levelshifting(0.0)       DIIS
                  --------------- ------------------- ---------------
          dE  on:    start            ASAP                start   
          dE off:  200 iters        200 iters           200 iters 


      Screening Tolerance Information
      -------------------------------
          Density screening/tol_rho:  1.00D-10
          AO Gaussian exp screening on grid/accAOfunc:  14
          CD Gaussian exp screening on grid/accCDfunc:  20
          XC Gaussian exp screening on grid/accXCfunc:  20
          Schwarz screening/accCoul:  1.00D-08



                            NWChem DFT Gradient Module
                            --------------------------



  charge          =  -1.00
  wavefunction    = closed shell



                         DFT ENERGY GRADIENTS

    atom               coordinates                        gradient
                 x          y          z           x          y          z
   1 O      -0.010907   0.003222   0.004487   -0.000000   0.000000   0.000000
   2 H      -1.653671   0.488509   0.680235    0.000000  -0.000000  -0.000000

                 ----------------------------------------
                 |  Time  |  1-e(secs)   |  2-e(secs)   |
                 ----------------------------------------
                 |  CPU   |       0.00   |       0.13   |
                 ----------------------------------------
                 |  WALL  |       0.00   |       0.13   |
                 ----------------------------------------

  Step       Energy      Delta E   Gmax     Grms     Xrms     Xmax   Walltime
  ---- ---------------- -------- -------- -------- -------- -------- --------
@    2     -75.75576131 -2.0D-07  0.00000  0.00000  0.00004  0.00006      2.8
                                     ok       ok       ok       ok  


      ----------------------
      Optimization converged
      ----------------------


  Step       Energy      Delta E   Gmax     Grms     Xrms     Xmax   Walltime
  ---- ---------------- -------- -------- -------- -------- -------- --------
@    2     -75.75576131 -2.0D-07  0.00000  0.00000  0.00004  0.00006      2.8
                                     ok       ok       ok       ok  



                         Geometry "geometry" -> "geometry"
                         ---------------------------------

 Output coordinates in angstroms (scale by  1.889725989 to convert to a.u.)

  No.       Tag          Charge          X              Y              Z
 ---- ---------------- ---------- -------------- -------------- --------------
    1 O                    8.0000    -0.00577172     0.00170502     0.00237419
    2 H                    1.0000    -0.87508528     0.25850798     0.35996481

      Atomic Mass 
      ----------- 

      O                 15.994910
      H                  1.007825


 Effective nuclear repulsion energy (a.u.)       4.3444817165

            Nuclear Dipole moment (a.u.) 
            ----------------------------
        X                 Y               Z
 ---------------- ---------------- ----------------
    -1.7409271242     0.5142853718     0.7161273547

 ==============================================================================
                                internuclear distances
 ------------------------------------------------------------------------------
       center one      |      center two      | atomic units |  angstroms
 ------------------------------------------------------------------------------
    2 H                |   1 O                |     1.84142  |     0.97444
 ------------------------------------------------------------------------------
                         number of included internuclear distances:          1
 ==============================================================================




 Task  times  cpu:        2.4s     wall:        2.7s


                                NWChem Input Module
                                -------------------


 Summary of allocated global arrays
-----------------------------------
  No active global arrays


MA_summarize_allocated_blocks: starting scan ...
MA_summarize_allocated_blocks: scan completed: 0 heap blocks, 0 stack blocks
MA usage statistics:

	allocation statistics:
					      heap	     stack
					      ----	     -----
	current number of blocks	         0	         0
	maximum number of blocks	        24	        53
	current total bytes		         0	         0
	maximum total bytes		 268657200	  42203704
	maximum total K-bytes		    268658	     42204
	maximum total M-bytes		       269	        43


                                     CITATION
                                     --------
                Please cite the following reference when publishing
                           results obtained with NWChem:

          E. Apra, E. J. Bylaska, W. A. de Jong, N. Govind, K. Kowalski,
       T. P. Straatsma, M. Valiev, H. J. J. van Dam, Y. Alexeev, J. Anchell,
       V. Anisimov, F. W. Aquino, R. Atta-Fynn, J. Autschbach, N. P. Bauman,
     J. C. Becca, D. E. Bernholdt, K. Bhaskaran-Nair, S. Bogatko, P. Borowski,
         J. Boschen, J. Brabec, A. Bruner, E. Cauet, Y. Chen, G. N. Chuev,
      C. J. Cramer, J. Daily, M. J. O. Deegan, T. H. Dunning Jr., M. Dupuis,
   K. G. Dyall, G. I. Fann, S. A. Fischer, A. Fonari, H. Fruchtl, L. Gagliardi,
      J. Garza, N. Gawande, S. Ghosh, K. Glaesemann, A. W. Gotz, J. Hammond,
       V. Helms, E. D. Hermes, K. Hirao, S. Hirata, M. Jacquelin, L. Jensen,
   B. G. Johnson, H. Jonsson, R. A. Kendall, M. Klemm, R. Kobayashi, V. Konkov,
      S. Krishnamoorthy, M. Krishnan, Z. Lin, R. D. Lins, R. J. Littlefield,
      A. J. Logsdail, K. Lopata, W. Ma, A. V. Marenich, J. Martin del Campo,
   D. Mejia-Rodriguez, J. E. Moore, J. M. Mullin, T. Nakajima, D. R. Nascimento,
    J. A. Nichols, P. J. Nichols, J. Nieplocha, A. Otero-de-la-Roza, B. Palmer,
    A. Panyala, T. Pirojsirikul, B. Peng, R. Peverati, J. Pittner, L. Pollack,
   R. M. Richard, P. Sadayappan, G. C. Schatz, W. A. Shelton, D. W. Silverstein,
   D. M. A. Smith, T. A. Soares, D. Song, M. Swart, H. L. Taylor, G. S. Thomas,
            V. Tipparaju, D. G. Truhlar, K. Tsemekhman, T. Van Voorhis,
      A. Vazquez-Mayagoitia, P. Verma, O. Villa, A. Vishnu, K. D. Vogiatzis,
        D. Wang, J. H. Weare, M. J. Williamson, T. L. Windus, K. Wolinski,
        A. T. Wong, Q. Wu, C. Yang, Q. Yu, M. Zacharias, Z. Zhang, Y. Zhao,
                                and R. J. Harrison
                        "NWChem: Past, present, and future
                         J. Chem. Phys. 152, 184102 (2020)
                               doi:10.1063/5.0004997

                                      AUTHORS
                                      -------
  E. Apra, E. J. Bylaska, N. Govind, K. Kowalski, M. Valiev, D. Mejia-Rodriguez,
       A. Kunitsa, N. P. Bauman, A. Panyala, W. A. de Jong, T. P. Straatsma,
   H. J. J. van Dam, D. Wang, T. L. Windus, J. Hammond, J. Autschbach, A. Woods,
    K. Bhaskaran-Nair, J. Brabec, K. Lopata, S. A. Fischer, S. Krishnamoorthy,
     M. Jacquelin, W. Ma, M. Klemm, O. Villa, Y. Chen, V. Anisimov, F. Aquino,
     S. Hirata, M. T. Hackler, E. Hermes, L. Jensen, J. E. Moore, J. C. Becca,
      V. Konjkov, T. Risthaus, M. Malagoli, A. Marenich, A. Otero-de-la-Roza,
        J. Mullin, P. Nichols, R. Peverati, J. Pittner, Y. Zhao, P.-D. Fan,
        A. Fonari, M. J. Williamson, R. J. Harrison, J. R. Rehr, M. Dupuis,
     D. Silverstein, D. M. A. Smith, J. Nieplocha, V. Tipparaju, M. Krishnan,
     B. E. Van Kuiken, A. Vazquez-Mayagoitia, M. Swart, Q. Wu, T. Van Voorhis,
     A. A. Auer, M. Nooijen, L. D. Crosby, E. Brown, G. Cisneros, G. I. Fann,
   H. Fruchtl, J. Garza, K. Hirao, R. A. Kendall, J. A. Nichols, K. Tsemekhman,
    K. Wolinski, J. Anchell, D. E. Bernholdt, P. Borowski, T. Clark, D. Clerc,
   H. Dachsel, M. J. O. Deegan, K. Dyall, D. Elwood, E. Glendening, M. Gutowski,
   A. C. Hess, J. Jaffe, B. G. Johnson, J. Ju, R. Kobayashi, R. Kutteh, Z. Lin,
   R. Littlefield, X. Long, B. Meng, T. Nakajima, S. Niu, L. Pollack, M. Rosing,
   K. Glaesemann, G. Sandrone, M. Stave, H. Taylor, G. Thomas, J. H. van Lenthe,
                               A. T. Wong, Z. Zhang.

 Total times  cpu:        2.4s     wall:        2.8s
