 argument  1 = 0e/mol.nwi
                                         
                                         


             Northwest Computational Chemistry Package (NWChem) 7.2.2
             --------------------------------------------------------


                    Environmental Molecular Sciences Laboratory
                       Pacific Northwest National Laboratory
                                Richland, WA 99352

                              Copyright (c) 1994-2022
                       Pacific Northwest National Laboratory
                            Battelle Memorial Institute

             NWChem is an open-source computational chemistry package
                        distributed under the terms of the
                      Educational Community License (ECL) 2.0
             A copy of the license is included with this distribution
                              in the LICENSE.TXT file

                                  ACKNOWLEDGMENT
                                  --------------

            This software and its documentation were developed at the
            EMSL at Pacific Northwest National Laboratory, a multiprogram
            national laboratory, operated for the U.S. Department of Energy
            by Battelle under Contract Number DE-AC05-76RL01830. Support
            for this work was provided by the Department of Energy Office
            of Biological and Environmental Research, Office of Basic
            Energy Sciences, and the Office of Advanced Scientific Computing.


           Job information
           ---------------

    hostname        = r227.ib.bridges2.psc.edu
    program         = nwchem
    date            = Tue Oct  1 15:17:39 2024

    compiled        = Mon_Mar_18_17:03:37_2024
    source          = /ocean/projects/pscstaff/mmadrid/nwchem-7.2.2
    nwchem branch   = 7.2.2
    nwchem revision = 74936fb9
    ga revision     = 5.8.0
    use scalapack   = F
    input           = 0e/mol.nwi
    prefix          = dft.
    data base       = .//dft.db
    status          = startup
    nproc           =       15
    time left       =     -1s



           Memory information
           ------------------

    heap     =   67108864 doubles =    512.0 Mbytes
    stack    =   67108861 doubles =    512.0 Mbytes
    global   =  134217728 doubles =   1024.0 Mbytes (distinct from heap & stack)
    total    =  268435453 doubles =   2048.0 Mbytes
    verify   = yes
    hardfail = no 


           Directory information
           ---------------------

  0 permanent = ./
  0 scratch   = /jet/home/hmt47/nwchem_scratch/




                                NWChem Input Module
                                -------------------


  library name resolved from: environment
  library file name is: </opt/packages/nwchem/nwchem7.2.2/share/nwchem/libraries/>
  


 Summary of "ao basis" -> "" (cartesian)
 ------------------------------------------------------------------------------
       Tag                 Description            Shells   Functions and Types
 ---------------- ------------------------------  ------  ---------------------
 *                        aug-cc-pVTZ                 on all atoms 


  pbe96 is a nonlocal functional; adding pw91lda local functional. 

 Scaling coordinates for geometry "geometry" by  1.889725989
 (inverse scale =  0.529177249)



                             Geometry "geometry" -> ""
                             -------------------------

 Output coordinates in angstroms (scale by  1.889725989 to convert to a.u.)

  No.       Tag          Charge          X              Y              Z
 ---- ---------------- ---------- -------------- -------------- --------------
    1 Cl                  17.0000     0.00203513    -0.00197838    -0.01423133
    2 O                    8.0000     1.22609484     0.69198904    -0.51809403
    3 O                    8.0000    -1.21444318     0.72345215    -0.49186727
    4 O                    8.0000    -0.02183555    -1.40565104    -0.52719717
    5 O                    8.0000     0.01760977    -0.01787278     1.48030080

      Atomic Mass 
      ----------- 

      Cl                34.968850
      O                 15.994910


 Effective nuclear repulsion energy (a.u.)     275.8534122236

            Nuclear Dipole moment (a.u.) 
            ----------------------------
        X                 Y               Z
 ---------------- ---------------- ----------------
     0.1776422743    -0.1857477815    -1.3167496738


            XYZ format geometry
            -------------------
     5
 geometry
 Cl                    0.00203513    -0.00197838    -0.01423133
 O                     1.22609484     0.69198904    -0.51809403
 O                    -1.21444318     0.72345215    -0.49186727
 O                    -0.02183555    -1.40565104    -0.52719717
 O                     0.01760977    -0.01787278     1.48030080

 ==============================================================================
                                internuclear distances
 ------------------------------------------------------------------------------
       center one      |      center two      | atomic units |  angstroms
 ------------------------------------------------------------------------------
    2 O                |   1 Cl               |     2.82436  |     1.49459
    3 O                |   1 Cl               |     2.82462  |     1.49473
    4 O                |   1 Cl               |     2.82449  |     1.49466
    5 O                |   1 Cl               |     2.82457  |     1.49470
 ------------------------------------------------------------------------------
                         number of included internuclear distances:          4
 ==============================================================================



 ==============================================================================
                                 internuclear angles
 ------------------------------------------------------------------------------
        center 1       |       center 2       |       center 3       |  degrees
 ------------------------------------------------------------------------------
    2 O                |   1 Cl               |   3 O                |   109.48
    2 O                |   1 Cl               |   4 O                |   109.48
    2 O                |   1 Cl               |   5 O                |   109.48
    3 O                |   1 Cl               |   4 O                |   109.46
    3 O                |   1 Cl               |   5 O                |   109.46
    4 O                |   1 Cl               |   5 O                |   109.47
 ------------------------------------------------------------------------------
                            number of included internuclear angles:          6
 ==============================================================================




                                 NWChem DFT Module
                                 -----------------


                      Basis "ao basis" -> "ao basis" (cartesian)
                      -----
  Cl (Chlorine)
  -------------
            Exponent  Coefficients 
       -------------- ---------------------------------------------------------
  1 S  4.56100000E+05  0.000049
  1 S  6.83300000E+04  0.000383
  1 S  1.55500000E+04  0.002009
  1 S  4.40500000E+03  0.008386
  1 S  1.43900000E+03  0.029470
  1 S  5.20400000E+02  0.087833
  1 S  2.03100000E+02  0.211473
  1 S  8.39600000E+01  0.365364
  1 S  3.62000000E+01  0.340884
  1 S  1.58300000E+01  0.102133
  1 S  6.33400000E+00  0.003117
  1 S  2.69400000E+00  0.001058
  1 S  4.31300000E-01  0.000156

  2 S  4.56100000E+05 -0.000014
  2 S  6.83300000E+04 -0.000107
  2 S  1.55500000E+04 -0.000565
  2 S  4.40500000E+03 -0.002361
  2 S  1.43900000E+03 -0.008459
  2 S  5.20400000E+02 -0.025964
  2 S  2.03100000E+02 -0.068636
  2 S  8.39600000E+01 -0.141874
  2 S  3.62000000E+01 -0.199319
  2 S  1.58300000E+01 -0.019566
  2 S  6.33400000E+00  0.499741
  2 S  2.69400000E+00  0.563736
  2 S  4.31300000E-01 -0.008351

  3 S  4.56100000E+05  0.000004
  3 S  6.83300000E+04  0.000032
  3 S  1.55500000E+04  0.000171
  3 S  4.40500000E+03  0.000714
  3 S  1.43900000E+03  0.002567
  3 S  5.20400000E+02  0.007886
  3 S  2.03100000E+02  0.021087
  3 S  8.39600000E+01  0.044226
  3 S  3.62000000E+01  0.065167
  3 S  1.58300000E+01  0.006030
  3 S  6.33400000E+00 -0.206495
  3 S  2.69400000E+00 -0.405871
  3 S  4.31300000E-01  0.725661

  4 S  9.76800000E-01  1.000000

  5 S  1.62500000E-01  1.000000

  6 S  5.91000000E-02  1.000000

  7 P  6.63300000E+02  0.002404
  7 P  1.56800000E+02  0.019215
  7 P  4.99800000E+01  0.088510
  7 P  1.84200000E+01  0.256020
  7 P  7.24000000E+00  0.436927
  7 P  2.92200000E+00  0.350334
  7 P  3.81800000E-01 -0.004584

  8 P  6.63300000E+02 -0.000652
  8 P  1.56800000E+02 -0.005194
  8 P  4.99800000E+01 -0.024694
  8 P  1.84200000E+01 -0.072817
  8 P  7.24000000E+00 -0.134030
  8 P  2.92200000E+00 -0.094774
  8 P  3.81800000E-01  0.564667

  9 P  1.02200000E+00  1.000000

 10 P  1.30100000E-01  1.000000

 11 P  4.19000000E-02  1.000000

 12 D  1.04600000E+00  1.000000

 13 D  3.44000000E-01  1.000000

 14 D  1.35000000E-01  1.000000

 15 F  7.06000000E-01  1.000000

 16 F  3.12000000E-01  1.000000

  O (Oxygen)
  ----------
            Exponent  Coefficients 
       -------------- ---------------------------------------------------------
  1 S  1.53300000E+04  0.000508
  1 S  2.29900000E+03  0.003929
  1 S  5.22400000E+02  0.020243
  1 S  1.47300000E+02  0.079181
  1 S  4.75500000E+01  0.230687
  1 S  1.67600000E+01  0.433118
  1 S  6.20700000E+00  0.350260
  1 S  6.88200000E-01 -0.008154

  2 S  1.53300000E+04 -0.000115
  2 S  2.29900000E+03 -0.000895
  2 S  5.22400000E+02 -0.004636
  2 S  1.47300000E+02 -0.018724
  2 S  4.75500000E+01 -0.058463
  2 S  1.67600000E+01 -0.136463
  2 S  6.20700000E+00 -0.175740
  2 S  6.88200000E-01  0.603418

  3 S  1.75200000E+00  1.000000

  4 S  2.38400000E-01  1.000000

  5 S  7.37600000E-02  1.000000

  6 P  3.44600000E+01  0.015928
  6 P  7.74900000E+00  0.099740
  6 P  2.28000000E+00  0.310492

  7 P  7.15600000E-01  1.000000

  8 P  2.14000000E-01  1.000000

  9 P  5.97400000E-02  1.000000

 10 D  2.31400000E+00  1.000000

 11 D  6.45000000E-01  1.000000

 12 D  2.14000000E-01  1.000000

 13 F  1.42800000E+00  1.000000

 14 F  5.00000000E-01  1.000000



 Summary of "ao basis" -> "ao basis" (cartesian)
 ------------------------------------------------------------------------------
       Tag                 Description            Shells   Functions and Types
 ---------------- ------------------------------  ------  ---------------------
 Cl                       aug-cc-pVTZ               16       59   6s5p3d2f
 O                        aug-cc-pVTZ               14       55   5s4p3d2f




 Summary of "ao basis" -> "ao basis" (cartesian)
 ------------------------------------------------------------------------------
       Tag                 Description            Shells   Functions and Types
 ---------------- ------------------------------  ------  ---------------------
 Cl                       aug-cc-pVTZ               16       59   6s5p3d2f
 O                        aug-cc-pVTZ               14       55   5s4p3d2f


  Caching 1-el integrals 

            General Information
            -------------------
          SCF calculation type: DFT
          Wavefunction type:  spin polarized.
          No. of atoms     :     5
          No. of electrons :    49
           Alpha electrons :    25
            Beta electrons :    24
          Charge           :     0
          Spin multiplicity:     2
          Use of symmetry is: off; symmetry adaption is: off
          Maximum number of iterations: 200
          AO basis - number of functions:   279
                     number of shells:    72
          Convergence on energy requested:  1.00D-06
          Convergence on density requested:  1.00D-05
          Convergence on gradient requested:  5.00D-04

              XC Information
              --------------
          PerdewBurkeErnzerhof Exchange Functional  1.000          
            Perdew 1991 LDA Correlation Functional  1.000 local    
           PerdewBurkeErnz. Correlation Functional  1.000 non-local

             Grid Information
             ----------------
          Grid used for XC integration:  medium    
          Radial quadrature: Mura-Knowles        
          Angular quadrature: Lebedev. 
          Tag              B.-S. Rad. Rad. Pts. Rad. Cut. Ang. Pts.
          ---              ---------- --------- --------- ---------
          Cl                  1.00       88          10.0       590
          O                   0.60       49          11.0       434
          Grid pruning is: on 
          Number of quadrature shells:   284
          Spatial weights used:  Erf1

          Convergence Information
          -----------------------
          Convergence aids based upon iterative change in 
          total energy or number of iterations. 
          Levelshifting, if invoked, occurs when the 
          HOMO/LUMO gap drops below (HL_TOL):  1.00D-02
          DIIS, if invoked, will attempt to extrapolate 
          using up to (NFOCK): 10 stored Fock matrices.

                    Damping(40%)  Levelshifting(0.0)       DIIS
                  --------------- ------------------- ---------------
          dE  on:    start            0.00D+00            start   
          dE off:  200 iters          0.00D+00          200 iters 


      Screening Tolerance Information
      -------------------------------
          Density screening/tol_rho:  1.00D-10
          AO Gaussian exp screening on grid/accAOfunc:  14
          CD Gaussian exp screening on grid/accCDfunc:  20
          XC Gaussian exp screening on grid/accXCfunc:  20
          Schwarz screening/accCoul:  1.00D-08


 Forcing the number of linearly dependent vectors to be  0

      Superposition of Atomic Density Guess
      -------------------------------------

 Sum of atomic energies:        -758.61166114
   Time after variat. SCF:      0.9
   Time prior to 1st pass:      0.9

 Grid_pts file          = /jet/home/hmt47/nwchem_scratch//dft.gridpts.00
 Record size in doubles =  12289        No. of grid_pts per rec  =   3070
 Max. records in memory =      5        Max. recs in file   =  67550051


           Memory utilization after 1st SCF pass: 
           Heap Space remaining (MW):       33.36            33363912
          Stack Space remaining (MW):       67.11            67106500

   convergence    iter        energy       DeltaE   RMS-Dens  Diis-err    time
 ---------------- ----- ----------------- --------- --------- ---------  ------
 d=40,ls=0.0,diis     1   -761.8656950749 -1.04D+03  5.08D-03  1.60D+01     1.8
                                                     5.10D-03  1.47D+01
 d=40,ls=0.0,diis     2   -760.8924962875  9.73D-01  4.45D-03  2.91D+00     4.9
                                                     4.73D-03  2.69D+00
 d=40,ls=0.0,diis     3   -759.6070431485  1.29D+00  2.22D-03  2.12D+00     8.3
                                                     2.55D-03  1.89D+00
 d=40,ls=0.0,diis     4   -760.1655657467 -5.59D-01  9.60D-04  5.22D-01    11.5
                                                     1.98D-03  4.93D-01
 d=40,ls=0.0,diis     5   -760.3161753131 -1.51D-01  5.28D-04  1.25D-01    14.5
                                                     2.15D-03  1.07D-01
  Resetting Diis
 d=40,ls=0.0,diis     6   -760.3326328073 -1.65D-02  2.79D-04  1.12D-01    17.6
                                                     1.83D-03  8.71D-02
 d=40,ls=0.0,diis     7   -760.3817317167 -4.91D-02  4.34D-04  1.17D-02    20.8
                                                     1.75D-03  9.17D-03
 d=40,ls=0.0,diis     8   -760.3600108002  2.17D-02  2.58D-04  6.91D-02    23.9
                                                     1.78D-03  5.86D-02
 d=40,ls=0.0,diis     9   -760.3849897149 -2.50D-02  1.19D-04  1.42D-02    27.2
                                                     2.05D-03  1.25D-02
 d=40,ls=0.0,diis    10   -760.3827029282  2.29D-03  4.99D-05  2.36D-02    30.4
                                                     1.88D-03  1.66D-02
 d=40,ls=0.0,diis    11   -760.3830654252 -3.62D-04  4.20D-05  2.41D-02    33.4
                                                     1.65D-03  1.69D-02
 d=40,ls=0.0,diis    12   -760.3814788366  1.59D-03  1.68D-05  3.02D-02    36.5
                                                     6.56D-04  2.05D-02
 d=40,ls=0.0,diis    13   -760.3761573812  5.32D-03  1.02D-05  4.42D-02    39.6
                                                     1.03D-03  3.15D-02
 d=40,ls=0.0,diis    14   -760.3746573912  1.50D-03  5.59D-06  4.81D-02    42.7
                                                     3.74D-04  3.47D-02
 d=40,ls=0.0,diis    15   -760.3728101174  1.85D-03  6.75D-06  5.31D-02    46.0
                                                     7.00D-04  3.92D-02
 d=40,ls=0.0,diis    16   -760.3730328419 -2.23D-04  4.59D-06  5.26D-02    49.4
                                                     1.04D-04  3.87D-02
 d=40,ls=0.0,diis    17   -760.3721780051  8.55D-04  1.01D-04  5.48D-02    52.3
                                                     2.36D-03  4.07D-02
 d=40,ls=0.0,diis    18   -760.3847269142 -1.25D-02  5.79D-05  2.17D-02    55.4
                                                     1.93D-03  1.52D-02
 d=40,ls=0.0,diis    19   -760.3914929604 -6.77D-03  3.18D-05  5.57D-03    58.5
                                                     1.80D-03  3.82D-03
 d=40,ls=0.0,diis    20   -760.3893044250  2.19D-03  2.29D-05  1.16D-02    61.6
                                                     8.70D-04  7.91D-03
 d=40,ls=0.0,diis    21   -760.3884080836  8.96D-04  1.36D-05  1.55D-02    65.0
                                                     6.24D-04  1.07D-02
 d=40,ls=0.0,diis    22   -760.3885414314 -1.33D-04  1.08D-05  1.64D-02    68.3
                                                     3.08D-04  1.15D-02
 d=40,ls=0.0,diis    23   -760.3878340900  7.07D-04  7.55D-06  1.85D-02    71.2
                                                     6.93D-04  1.34D-02
 d=40,ls=0.0,diis    24   -760.3846259468  3.21D-03  1.24D-05  2.55D-02    74.3
                                                     9.92D-05  1.91D-02
 d=40,ls=0.0,diis    25   -760.3848369957 -2.11D-04  1.38D-05  2.53D-02    77.5
                                                     4.75D-04  1.88D-02
 d=40,ls=0.0,diis    26   -760.3808206257  4.02D-03  6.37D-06  3.40D-02    80.6
                                                     4.66D-04  2.56D-02
 d=40,ls=0.0,diis    27   -760.3769159844  3.90D-03  1.03D-05  4.25D-02    84.0
                                                     5.09D-04  3.19D-02
 d=40,ls=0.0,diis    28   -760.3735399498  3.38D-03  2.49D-05  4.97D-02    87.2
                                                     5.86D-04  3.69D-02
 d=40,ls=0.0,diis    29   -760.3762262530 -2.69D-03  8.99D-05  4.39D-02    90.0
                                                     2.24D-03  3.31D-02
 d=40,ls=0.0,diis    30   -760.3912294130 -1.50D-02  6.35D-05  7.46D-03    93.2
                                                     1.34D-03  5.60D-03
 d=40,ls=0.0,diis    31   -760.3858872746  5.34D-03  2.39D-05  1.94D-02    96.3
                                                     1.26D-03  1.45D-02
 d=40,ls=0.0,diis    32   -760.3938076388 -7.92D-03  3.93D-05  2.56D-03    99.4
                                                     8.38D-04  1.51D-03
 d=40,ls=0.0,diis    33   -760.3940284951 -2.21D-04  3.11D-05  2.88D-03   102.5
                                                     2.42D-04  1.75D-03
 d=40,ls=0.0,diis    34   -760.3946157857 -5.87D-04  9.02D-05  1.97D-03   105.8
                                                     1.37D-04  1.11D-03
 d=40,ls=0.0,diis    35   -760.3951623657 -5.47D-04  1.32D-05  4.32D-04   109.1
                                                     4.78D-05  3.17D-04
 d=40,ls=0.0,diis    36   -760.3953109521 -1.49D-04  8.63D-06  2.82D-04   112.2
                                                     4.57D-05  2.15D-04
 d=40,ls=0.0,diis    37   -760.3954020915 -9.11D-05  8.66D-06  1.49D-04   115.3
                                                     3.77D-05  1.08D-04
 d=40,ls=0.0,diis    38   -760.3954451276 -4.30D-05  8.10D-06  7.67D-05   118.4
                                                     3.75D-05  5.49D-05
 d=40,ls=0.0,diis    39   -760.3954557998 -1.07D-05  5.41D-06  6.19D-05   121.5
                                                     9.77D-06  4.85D-05
 d=40,ls=0.0,diis    40   -760.3954615782 -5.78D-06  6.04D-06  5.39D-05   124.9
                                                     1.38D-05  4.46D-05
 d=40,ls=0.0,diis    41   -760.3954711504 -9.57D-06  3.38D-06  3.34D-05   128.2
                                                     1.85D-05  2.78D-05
 d=40,ls=0.0,diis    42   -760.3954825004 -1.14D-05  1.81D-06  7.55D-06   131.3
                                                     1.12D-05  6.28D-06
 d=40,ls=0.0,diis    43   -760.3954856447 -3.14D-06  6.59D-07  9.80D-07   134.4
                                                     3.95D-06  8.07D-07
 d=40,ls=0.0,diis    44   -760.3954862102 -5.65D-07  2.72D-07  1.41D-07   137.5
                                                     1.23D-06  1.15D-07


         Total DFT energy =     -760.395486210200
      One electron energy =    -1593.069313868000
           Coulomb energy =      618.782186072785
    Exchange-Corr. energy =      -61.961770638537
 Nuclear repulsion energy =      275.853412223553

 Numeric. integr. density =       48.999998695475

     Total iterative time =    136.7s



                    DFT Final Alpha Molecular Orbital Analysis
                    ------------------------------------------

 Vector    1  Occ=1.000000D+00  E=-1.011068D+02
              MO Center=  2.0D-03, -2.0D-03, -1.4D-02, r^2= 3.1D-03
   Bfn.  Coefficient  Atom+Function         Bfn.  Coefficient  Atom+Function  
  ----- ------------  ---------------      ----- ------------  ---------------
     1      1.004412  1 Cl s                  5     -0.115689  1 Cl s          
     3      0.033514  1 Cl s                  2      0.026786  1 Cl s          

 Vector    2  Occ=1.000000D+00  E=-1.887122D+01
              MO Center= -6.1D-02, -1.3D+00, -5.1D-01, r^2= 3.2D-01
   Bfn.  Coefficient  Atom+Function         Bfn.  Coefficient  Atom+Function  
  ----- ------------  ---------------      ----- ------------  ---------------
   170      0.951976  4 O  s                115      0.193458  3 O  s          
   225      0.089579  5 O  s                 60      0.075571  2 O  s          
     6      0.066551  1 Cl s                172      0.061459  4 O  s          
   173     -0.039187  4 O  s                174     -0.034774  4 O  s          
    17      0.027586  1 Cl py         

 Vector    3  Occ=1.000000D+00  E=-1.887118D+01
              MO Center= -1.1D+00,  6.2D-01, -4.7D-01, r^2= 3.7D-01
   Bfn.  Coefficient  Atom+Function         Bfn.  Coefficient  Atom+Function  
  ----- ------------  ---------------      ----- ------------  ---------------
   115      0.946757  3 O  s                170     -0.207346  4 O  s          
   225      0.099167  5 O  s                 60      0.086106  2 O  s          
   117      0.060937  3 O  s                  6      0.046954  1 Cl s          
   118     -0.034922  3 O  s                119     -0.030465  3 O  s          

 Vector    4  Occ=1.000000D+00  E=-1.887113D+01
              MO Center=  1.1D-01,  6.0D-02,  1.2D+00, r^2= 7.0D-01
   Bfn.  Coefficient  Atom+Function         Bfn.  Coefficient  Atom+Function  
  ----- ------------  ---------------      ----- ------------  ---------------
   225      0.912750  5 O  s                 60      0.311951  2 O  s          
   115     -0.140748  3 O  s                170     -0.080739  4 O  s          
   227      0.058805  5 O  s                  6      0.050945  1 Cl s          
   228     -0.034843  5 O  s                 18     -0.031705  1 Cl pz         
   229     -0.030588  5 O  s          

 Vector    5  Occ=1.000000D+00  E=-1.887112D+01
              MO Center=  1.1D+00,  6.1D-01, -3.0D-01, r^2= 6.2D-01
   Bfn.  Coefficient  Atom+Function         Bfn.  Coefficient  Atom+Function  
  ----- ------------  ---------------      ----- ------------  ---------------
    60      0.919924  2 O  s                225     -0.325157  5 O  s          
    62      0.059021  2 O  s                115     -0.055779  3 O  s          
   170     -0.030454  4 O  s                 63     -0.029729  2 O  s          
    16     -0.028597  1 Cl px                 6      0.025827  1 Cl s          
    64     -0.025365  2 O  s          

 Vector    6  Occ=1.000000D+00  E=-9.542827D+00
              MO Center=  2.0D-03, -2.0D-03, -1.4D-02, r^2= 6.6D-02
   Bfn.  Coefficient  Atom+Function         Bfn.  Coefficient  Atom+Function  
  ----- ------------  ---------------      ----- ------------  ---------------
     2      0.887743  1 Cl s                  4      0.118256  1 Cl s          
     3     -0.051923  1 Cl s                  5      0.046120  1 Cl s          

 Vector    7  Occ=1.000000D+00  E=-7.366410D+00
              MO Center=  2.1D-03, -2.0D-03, -1.4D-02, r^2= 5.8D-02
   Bfn.  Coefficient  Atom+Function         Bfn.  Coefficient  Atom+Function  
  ----- ------------  ---------------      ----- ------------  ---------------
     8      0.870864  1 Cl py                 7      0.532269  1 Cl px         
    11      0.092378  1 Cl py                10      0.056463  1 Cl px         
     9      0.048839  1 Cl pz                48     -0.033321  1 Cl fyzz       
    41     -0.032512  1 Cl fxxy              46     -0.032436  1 Cl fyyy       
   182     -0.032546  4 O  py                58     -0.031131  1 Cl fyzz       

 Vector    8  Occ=1.000000D+00  E=-7.366410D+00
              MO Center=  2.0D-03, -2.0D-03, -1.4D-02, r^2= 5.8D-02
   Bfn.  Coefficient  Atom+Function         Bfn.  Coefficient  Atom+Function  
  ----- ------------  ---------------      ----- ------------  ---------------
     9      0.818981  1 Cl pz                 7      0.499855  1 Cl px         
     8     -0.351440  1 Cl py                12      0.086871  1 Cl pz         
    10      0.053019  1 Cl px                11     -0.037279  1 Cl py         
   238     -0.034637  5 O  pz                57     -0.033943  1 Cl fyyz       
    47     -0.031861  1 Cl fyyz              42     -0.030925  1 Cl fxxz       

 Vector    9  Occ=1.000000D+00  E=-7.366357D+00
              MO Center=  2.0D-03, -2.0D-03, -1.4D-02, r^2= 5.8D-02
   Bfn.  Coefficient  Atom+Function         Bfn.  Coefficient  Atom+Function  
  ----- ------------  ---------------      ----- ------------  ---------------
     7      0.714800  1 Cl px                 9     -0.609086  1 Cl pz         
     8     -0.402722  1 Cl py                10      0.075824  1 Cl px         
    12     -0.064609  1 Cl pz                11     -0.042716  1 Cl py         
    45     -0.027449  1 Cl fxzz              52      0.026879  1 Cl fxxz       
    40     -0.026597  1 Cl fxxx              43     -0.026634  1 Cl fxyy       

 Vector   10  Occ=1.000000D+00  E=-1.248897D+00
              MO Center=  2.0D-03, -2.1D-03, -1.4D-02, r^2= 1.2D+00
   Bfn.  Coefficient  Atom+Function         Bfn.  Coefficient  Atom+Function  
  ----- ------------  ---------------      ----- ------------  ---------------
     3      0.478767  1 Cl s                  5      0.188282  1 Cl s          
    61      0.147431  2 O  s                116      0.147416  3 O  s          
   171      0.147475  4 O  s                226      0.147388  5 O  s          
    63      0.114036  2 O  s                118      0.114041  3 O  s          
   173      0.114072  4 O  s                228      0.114008  5 O  s          

 Vector   11  Occ=1.000000D+00  E=-1.030149D+00
              MO Center=  4.1D-01, -2.7D-01, -3.7D-01, r^2= 1.5D+00
   Bfn.  Coefficient  Atom+Function         Bfn.  Coefficient  Atom+Function  
  ----- ------------  ---------------      ----- ------------  ---------------
   171     -0.323666  4 O  s                 61      0.316630  2 O  s          
   173     -0.235789  4 O  s                 63      0.230648  2 O  s          
    14      0.141458  1 Cl py                 8     -0.094545  1 Cl py         
    13      0.093883  1 Cl px               172     -0.089515  4 O  s          
    62      0.087566  2 O  s                179     -0.073619  4 O  py         

 Vector   12  Occ=1.000000D+00  E=-1.030089D+00
              MO Center= -4.3D-01,  2.5D-01,  3.2D-01, r^2= 1.5D+00
   Bfn.  Coefficient  Atom+Function         Bfn.  Coefficient  Atom+Function  
  ----- ------------  ---------------      ----- ------------  ---------------
   116      0.323806  3 O  s                226     -0.316530  5 O  s          
   118      0.235882  3 O  s                228     -0.230559  5 O  s          
    15     -0.135389  1 Cl pz                 9      0.090484  1 Cl pz         
   117      0.089554  3 O  s                227     -0.087541  5 O  s          
    13     -0.078435  1 Cl px               235      0.077322  5 O  pz         

 Vector   13  Occ=1.000000D+00  E=-1.029748D+00
              MO Center=  2.1D-02,  1.1D-02,  5.5D-05, r^2= 1.8D+00
   Bfn.  Coefficient  Atom+Function         Bfn.  Coefficient  Atom+Function  
  ----- ------------  ---------------      ----- ------------  ---------------
    61      0.233265  2 O  s                226     -0.232453  5 O  s          
   116     -0.223297  3 O  s                171      0.222389  4 O  s          
    63      0.170894  2 O  s                228     -0.170293  5 O  s          
   118     -0.163615  3 O  s                173      0.162952  4 O  s          
    13      0.118848  1 Cl px                15     -0.102405  1 Cl pz         

 Vector   14  Occ=1.000000D+00  E=-6.751076D-01
              MO Center=  1.8D-03, -2.2D-03, -1.4D-02, r^2= 2.9D+00
   Bfn.  Coefficient  Atom+Function         Bfn.  Coefficient  Atom+Function  
  ----- ------------  ---------------      ----- ------------  ---------------
     3      0.409016  1 Cl s                  5      0.288398  1 Cl s          
     6      0.287764  1 Cl s                 61     -0.226327  2 O  s          
   116     -0.226315  3 O  s                171     -0.226340  4 O  s          
   226     -0.226309  5 O  s                 63     -0.212978  2 O  s          
   118     -0.212951  3 O  s                173     -0.212973  4 O  s          

 Vector   15  Occ=1.000000D+00  E=-5.656717D-01
              MO Center= -3.3D-01,  1.9D-01,  2.6D-01, r^2= 2.3D+00
   Bfn.  Coefficient  Atom+Function         Bfn.  Coefficient  Atom+Function  
  ----- ------------  ---------------      ----- ------------  ---------------
   116      0.199737  3 O  s                226     -0.198467  5 O  s          
    15      0.191793  1 Cl pz               118      0.180073  3 O  s          
   228     -0.178919  5 O  s                 12      0.150484  1 Cl pz         
   235     -0.148590  5 O  pz               232     -0.146252  5 O  pz         
   123     -0.137647  3 O  px               120     -0.135890  3 O  px         

 Vector   16  Occ=1.000000D+00  E=-5.656612D-01
              MO Center=  3.2D-01, -2.0D-01, -2.9D-01, r^2= 2.3D+00
   Bfn.  Coefficient  Atom+Function         Bfn.  Coefficient  Atom+Function  
  ----- ------------  ---------------      ----- ------------  ---------------
   171      0.200134  4 O  s                 14      0.198824  1 Cl py         
    61     -0.198089  2 O  s                173      0.180408  4 O  s          
    63     -0.178567  2 O  s                 11      0.155979  1 Cl py         
   179     -0.135513  4 O  py               176     -0.133196  4 O  py         
    13      0.131636  1 Cl px                68     -0.129208  2 O  px         

 Vector   17  Occ=1.000000D+00  E=-5.629621D-01
              MO Center=  8.0D-03,  3.6D-03, -1.1D-02, r^2= 2.6D+00
   Bfn.  Coefficient  Atom+Function         Bfn.  Coefficient  Atom+Function  
  ----- ------------  ---------------      ----- ------------  ---------------
    13      0.168411  1 Cl px                15     -0.142963  1 Cl pz         
    61     -0.143618  2 O  s                226      0.142830  5 O  s          
   116      0.141272  3 O  s                171     -0.140459  4 O  s          
    10      0.131825  1 Cl px                63     -0.129090  2 O  s          
   228      0.128404  5 O  s                118      0.127013  3 O  s          

 Vector   18  Occ=1.000000D+00  E=-4.223154D-01
              MO Center=  3.3D-05, -3.8D-03, -1.5D-02, r^2= 2.5D+00
   Bfn.  Coefficient  Atom+Function         Bfn.  Coefficient  Atom+Function  
  ----- ------------  ---------------      ----- ------------  ---------------
   124     -0.161314  3 O  py               234      0.161112  5 O  py         
   121     -0.157622  3 O  py               231      0.157434  5 O  py         
    70      0.151321  2 O  pz               180     -0.151940  4 O  pz         
    67      0.147868  2 O  pz               177     -0.148464  4 O  pz         
    32      0.119243  1 Cl dyz               26      0.110651  1 Cl dyz        

 Vector   19  Occ=1.000000D+00  E=-4.039368D-01
              MO Center= -1.0D-01, -2.5D-03,  4.5D-02, r^2= 2.7D+00
   Bfn.  Coefficient  Atom+Function         Bfn.  Coefficient  Atom+Function  
  ----- ------------  ---------------      ----- ------------  ---------------
   234      0.176511  5 O  py               231      0.172175  5 O  py         
   124      0.168010  3 O  py               179      0.166410  4 O  py         
   121      0.163856  3 O  py               176      0.163800  4 O  py         
    68      0.126665  2 O  px                69      0.125751  2 O  py         
    65      0.124463  2 O  px                66      0.124198  2 O  py         

 Vector   20  Occ=1.000000D+00  E=-4.039170D-01
              MO Center=  6.6D-02, -3.5D-02, -9.7D-02, r^2= 2.7D+00
   Bfn.  Coefficient  Atom+Function         Bfn.  Coefficient  Atom+Function  
  ----- ------------  ---------------      ----- ------------  ---------------
   235      0.164918  5 O  pz               232      0.162276  5 O  pz         
    70      0.159351  2 O  pz                67      0.155345  2 O  pz         
   180      0.155884  4 O  pz               177      0.151976  4 O  pz         
   125      0.139112  3 O  pz               122      0.137369  3 O  pz         
   183      0.104630  4 O  pz                73      0.102509  2 O  pz         

 Vector   21  Occ=1.000000D+00  E=-4.037190D-01
              MO Center=  4.2D-02,  3.2D-02,  8.8D-03, r^2= 2.5D+00
   Bfn.  Coefficient  Atom+Function         Bfn.  Coefficient  Atom+Function  
  ----- ------------  ---------------      ----- ------------  ---------------
   233      0.170221  5 O  px               230      0.167744  5 O  px         
   125     -0.166637  3 O  pz               122     -0.164095  3 O  pz         
    69      0.162736  2 O  py                66      0.160217  2 O  py         
   178     -0.146048  4 O  px               175     -0.144019  4 O  px         
    30      0.132783  1 Cl dxz               24      0.123396  1 Cl dxz        

 Vector   22  Occ=1.000000D+00  E=-3.938594D-01
              MO Center=  8.6D-04, -1.7D-03, -1.4D-02, r^2= 2.7D+00
   Bfn.  Coefficient  Atom+Function         Bfn.  Coefficient  Atom+Function  
  ----- ------------  ---------------      ----- ------------  ---------------
    68      0.137307  2 O  px               123      0.137353  3 O  px         
    65      0.134875  2 O  px               120      0.134922  3 O  px         
   178      0.128384  4 O  px               233      0.128675  5 O  px         
   175      0.126568  4 O  px               230      0.126855  5 O  px         
   235     -0.119567  5 O  pz               232     -0.117283  5 O  pz         

 Vector   23  Occ=1.000000D+00  E=-3.430510D-01
              MO Center=  8.6D-04, -2.8D-03, -1.5D-02, r^2= 2.7D+00
   Bfn.  Coefficient  Atom+Function         Bfn.  Coefficient  Atom+Function  
  ----- ------------  ---------------      ----- ------------  ---------------
   124      0.186161  3 O  py               234     -0.186167  5 O  py         
   121      0.179327  3 O  py               231     -0.179339  5 O  py         
    70      0.174524  2 O  pz               180     -0.174876  4 O  pz         
    67      0.168123  2 O  pz               177     -0.168451  4 O  pz         
   127      0.129749  3 O  py               237     -0.129731  5 O  py         

 Vector   24  Occ=1.000000D+00  E=-3.262294D-01
              MO Center=  3.5D-01, -2.1D-01, -3.1D-01, r^2= 2.5D+00
   Bfn.  Coefficient  Atom+Function         Bfn.  Coefficient  Atom+Function  
  ----- ------------  ---------------      ----- ------------  ---------------
    69      0.231217  2 O  py               178      0.231128  4 O  px         
    66      0.224849  2 O  py               175      0.224814  4 O  px         
   181      0.165442  4 O  px                72      0.162342  2 O  py         
   180     -0.125005  4 O  pz                70      0.123349  2 O  pz         
   177     -0.121599  4 O  pz                67      0.120024  2 O  pz         

 Vector   25  Occ=1.000000D+00  E=-3.262065D-01
              MO Center= -3.5D-01,  2.1D-01,  2.8D-01, r^2= 2.5D+00
   Bfn.  Coefficient  Atom+Function         Bfn.  Coefficient  Atom+Function  
  ----- ------------  ---------------      ----- ------------  ---------------
   125      0.259592  3 O  pz               122      0.252464  3 O  pz         
   233      0.232280  5 O  px               230      0.225915  5 O  px         
   128      0.183694  3 O  pz               236      0.166290  5 O  px         
   234     -0.135591  5 O  py               231     -0.131904  5 O  py         
    70     -0.113113  2 O  pz                67     -0.108659  2 O  pz         

 Vector   26  Occ=0.000000D+00  E=-8.865309D-02
              MO Center=  2.2D-03, -1.9D-03, -1.4D-02, r^2= 3.2D+00
   Bfn.  Coefficient  Atom+Function         Bfn.  Coefficient  Atom+Function  
  ----- ------------  ---------------      ----- ------------  ---------------
     6      1.909733  1 Cl s                  5      0.835840  1 Cl s          
     3      0.491268  1 Cl s                 64     -0.419643  2 O  s          
   119     -0.419484  3 O  s                174     -0.419549  4 O  s          
   229     -0.419535  5 O  s                 63     -0.244375  2 O  s          
   118     -0.244456  3 O  s                173     -0.244465  4 O  s          

 Vector   27  Occ=0.000000D+00  E=-4.367196D-02
              MO Center=  6.5D-03, -4.5D-03, -1.8D-02, r^2= 2.3D+00
   Bfn.  Coefficient  Atom+Function         Bfn.  Coefficient  Atom+Function  
  ----- ------------  ---------------      ----- ------------  ---------------
    12      0.395979  1 Cl pz                11     -0.219545  1 Cl py         
    15      0.220232  1 Cl pz                21      0.217729  1 Cl pz         
    10      0.209784  1 Cl px                39     -0.208717  1 Cl dzz        
   123      0.193457  3 O  px               235      0.190877  5 O  pz         
    34      0.179826  1 Cl dxx              120      0.159163  3 O  px         

 Vector   28  Occ=0.000000D+00  E=-4.359995D-02
              MO Center= -2.3D-03,  6.8D-04, -1.1D-02, r^2= 2.3D+00
   Bfn.  Coefficient  Atom+Function         Bfn.  Coefficient  Atom+Function  
  ----- ------------  ---------------      ----- ------------  ---------------
    11      0.400728  1 Cl py                10      0.289343  1 Cl px         
    14      0.222829  1 Cl py                20      0.220416  1 Cl py         
    38      0.213349  1 Cl dyz               35     -0.198242  1 Cl dxy        
   179      0.172692  4 O  py                68      0.167827  2 O  px         
    37      0.165532  1 Cl dyy               13      0.160904  1 Cl px         

 Vector   29  Occ=0.000000D+00  E=-3.872494D-02
              MO Center=  1.6D-03, -2.2D-03, -1.4D-02, r^2= 2.4D+00
   Bfn.  Coefficient  Atom+Function         Bfn.  Coefficient  Atom+Function  
  ----- ------------  ---------------      ----- ------------  ---------------
    10      0.351051  1 Cl px                12     -0.298093  1 Cl pz         
    35     -0.263245  1 Cl dxy               11     -0.202284  1 Cl py         
    13      0.193303  1 Cl px                19      0.191436  1 Cl px         
    36      0.180398  1 Cl dxz               69      0.168990  2 O  py         
    15     -0.164145  1 Cl pz               125      0.164283  3 O  pz         

 Vector   30  Occ=0.000000D+00  E= 6.665197D-03
              MO Center=  1.9D-03, -2.4D-03, -1.5D-02, r^2= 1.0D+01
   Bfn.  Coefficient  Atom+Function         Bfn.  Coefficient  Atom+Function  
  ----- ------------  ---------------      ----- ------------  ---------------
     6     14.805154  1 Cl s                 64     -3.670431  2 O  s          
   119     -3.669095  3 O  s                174     -3.669797  4 O  s          
   229     -3.669345  5 O  s                  5     -2.236234  1 Cl s          
   241      0.944000  5 O  pz               185     -0.887237  4 O  py         
    74      0.772632  2 O  px               129     -0.767614  3 O  px         

 Vector   31  Occ=0.000000D+00  E= 3.317846D-02
              MO Center=  1.3D-02, -8.4D-03, -2.3D-02, r^2= 1.4D+01
   Bfn.  Coefficient  Atom+Function         Bfn.  Coefficient  Atom+Function  
  ----- ------------  ---------------      ----- ------------  ---------------
   119      2.256802  3 O  s                229     -2.244106  5 O  s          
    21      2.082301  1 Cl pz                20     -1.833466  1 Cl py         
    18      1.071312  1 Cl pz               174     -1.060186  4 O  s          
    64      1.047626  2 O  s                 17     -0.943388  1 Cl py         
    19      0.694531  1 Cl px               118      0.634557  3 O  s          

 Vector   32  Occ=0.000000D+00  E= 3.318038D-02
              MO Center= -8.5D-03,  4.5D-03, -5.2D-03, r^2= 1.4D+01
   Bfn.  Coefficient  Atom+Function         Bfn.  Coefficient  Atom+Function  
  ----- ------------  ---------------      ----- ------------  ---------------
    64      2.245412  2 O  s                174     -2.256150  4 O  s          
    19     -1.930606  1 Cl px                20     -1.861177  1 Cl py         
   229      1.058779  5 O  s                119     -1.048886  3 O  s          
    16     -0.993440  1 Cl px                21     -0.994585  1 Cl pz         
    17     -0.957827  1 Cl py                63      0.631350  2 O  s          

 Vector   33  Occ=0.000000D+00  E= 3.384462D-02
              MO Center=  1.8D-03, -2.0D-03, -1.4D-02, r^2= 1.4D+01
   Bfn.  Coefficient  Atom+Function         Bfn.  Coefficient  Atom+Function  
  ----- ------------  ---------------      ----- ------------  ---------------
    19      2.010126  1 Cl px                64     -1.788480  2 O  s          
   229      1.784633  5 O  s                119      1.774267  3 O  s          
   174     -1.767053  4 O  s                 21     -1.704524  1 Cl pz         
    20     -1.173972  1 Cl py                16      1.041736  1 Cl px         
    18     -0.883336  1 Cl pz                17     -0.608759  1 Cl py         

 Vector   34  Occ=0.000000D+00  E= 9.544881D-02
              MO Center= -7.7D-03, -1.1D-02, -1.9D-02, r^2= 1.2D+01
   Bfn.  Coefficient  Atom+Function         Bfn.  Coefficient  Atom+Function  
  ----- ------------  ---------------      ----- ------------  ---------------
    38      1.978555  1 Cl dyz               36      1.199979  1 Cl dxz        
    35      0.767828  1 Cl dxy               34      0.741648  1 Cl dxx        
    37     -0.730535  1 Cl dyy              130      0.701154  3 O  py         
   240     -0.681469  5 O  py               186      0.638186  4 O  pz         
    76     -0.632666  2 O  pz               127      0.539666  3 O  py         

 Vector   35  Occ=0.000000D+00  E= 9.555362D-02
              MO Center= -4.8D-01,  3.0D-01,  3.9D-01, r^2= 1.2D+01
   Bfn.  Coefficient  Atom+Function         Bfn.  Coefficient  Atom+Function  
  ----- ------------  ---------------      ----- ------------  ---------------
    18      3.465242  1 Cl pz                16      2.173503  1 Cl px         
   118      1.868125  3 O  s                228     -1.853540  5 O  s          
   238      1.664995  5 O  pz               241      1.510293  5 O  pz         
   126      1.400197  3 O  px                17     -1.345227  1 Cl py         
   129      1.266786  3 O  px               259     -0.922479  5 O  dzz        

 Vector   36  Occ=0.000000D+00  E= 9.556007D-02
              MO Center=  4.9D-01, -3.0D-01, -4.2D-01, r^2= 1.2D+01
   Bfn.  Coefficient  Atom+Function         Bfn.  Coefficient  Atom+Function  
  ----- ------------  ---------------      ----- ------------  ---------------
    17      3.709668  1 Cl py                16      2.187032  1 Cl px         
   173      1.874499  4 O  s                 63     -1.847440  2 O  s          
   182      1.561827  4 O  py               185      1.418757  4 O  py         
    71      1.381843  2 O  px                74      1.246269  2 O  px         
   174      0.906888  4 O  s                 64     -0.898336  2 O  s          

 Vector   37  Occ=0.000000D+00  E= 9.631120D-02
              MO Center=  1.5D-02,  6.8D-03, -9.7D-03, r^2= 1.3D+01
   Bfn.  Coefficient  Atom+Function         Bfn.  Coefficient  Atom+Function  
  ----- ------------  ---------------      ----- ------------  ---------------
    16      3.027927  1 Cl px                18     -2.574006  1 Cl pz         
    17     -1.738709  1 Cl py                63     -1.349234  2 O  s          
   228      1.340007  5 O  s                118      1.320133  3 O  s          
   173     -1.311424  4 O  s                238     -1.196597  5 O  pz         
   182     -1.125670  4 O  py               241     -1.080053  5 O  pz         

 Vector   38  Occ=0.000000D+00  E= 9.707726D-02
              MO Center=  5.7D-04, -9.5D-04, -1.3D-02, r^2= 1.2D+01
   Bfn.  Coefficient  Atom+Function         Bfn.  Coefficient  Atom+Function  
  ----- ------------  ---------------      ----- ------------  ---------------
    36      2.065823  1 Cl dxz               35      1.448324  1 Cl dxy        
    38     -1.222375  1 Cl dyz              131      0.751957  3 O  pz         
   184      0.689369  4 O  px               239     -0.687168  5 O  px         
    75     -0.652334  2 O  py               128      0.584575  3 O  pz         
   181      0.532177  4 O  px               236     -0.530935  5 O  px         

 Vector   39  Occ=0.000000D+00  E= 1.201620D-01
              MO Center=  8.4D-04, -2.3D-03, -1.4D-02, r^2= 1.3D+01
   Bfn.  Coefficient  Atom+Function         Bfn.  Coefficient  Atom+Function  
  ----- ------------  ---------------      ----- ------------  ---------------
     6      8.928182  1 Cl s                 64     -3.362647  2 O  s          
   119     -3.361688  3 O  s                174     -3.362163  4 O  s          
   229     -3.361849  5 O  s                  5      3.149666  1 Cl s          
   241      1.572429  5 O  pz               185     -1.478591  4 O  py         
    74      1.285035  2 O  px               129     -1.277664  3 O  px         

 Vector   40  Occ=0.000000D+00  E= 1.641702D-01
              MO Center=  1.2D-04, -3.4D-03, -1.5D-02, r^2= 1.3D+01
   Bfn.  Coefficient  Atom+Function         Bfn.  Coefficient  Atom+Function  
  ----- ------------  ---------------      ----- ------------  ---------------
   130      1.363888  3 O  py               240     -1.362608  5 O  py         
    76      1.275973  2 O  pz               186     -1.281170  4 O  pz         
   129      0.809476  3 O  px               184     -0.803764  4 O  px         
   239     -0.804527  5 O  px                74      0.799032  2 O  px         
    75     -0.482714  2 O  py               185      0.481629  4 O  py         

 Vector   41  Occ=0.000000D+00  E= 1.650419D-01
              MO Center=  2.9D-01, -1.7D-01, -2.6D-01, r^2= 1.3D+01
   Bfn.  Coefficient  Atom+Function         Bfn.  Coefficient  Atom+Function  
  ----- ------------  ---------------      ----- ------------  ---------------
    75      1.628238  2 O  py               184      1.581975  4 O  px         
   240     -1.100521  5 O  py               186     -1.039603  4 O  pz         
   130     -0.936794  3 O  py                76      0.819839  2 O  pz         
   129     -0.648134  3 O  px                74     -0.607930  2 O  px         
   239     -0.378513  5 O  px               185      0.333790  4 O  py         

 Vector   42  Occ=0.000000D+00  E= 1.650439D-01
              MO Center= -2.8D-01,  1.7D-01,  2.3D-01, r^2= 1.3D+01
   Bfn.  Coefficient  Atom+Function         Bfn.  Coefficient  Atom+Function  
  ----- ------------  ---------------      ----- ------------  ---------------
   131      1.810634  3 O  pz               239      1.721092  5 O  px         
    76     -1.038386  2 O  pz               240     -0.854508  5 O  py         
   186     -0.801373  4 O  pz               184     -0.777089  4 O  px         
    74     -0.510051  2 O  px               129     -0.475392  3 O  px         
   130      0.433686  3 O  py               128     -0.308027  3 O  pz         

 Vector   43  Occ=0.000000D+00  E= 2.082099D-01
              MO Center= -3.4D-02,  1.9D-02,  1.6D-02, r^2= 1.5D+01
   Bfn.  Coefficient  Atom+Function         Bfn.  Coefficient  Atom+Function  
  ----- ------------  ---------------      ----- ------------  ---------------
   119      6.542622  3 O  s                229     -6.513662  5 O  s          
    21      6.479018  1 Cl pz                19      4.298575  1 Cl px         
    18      2.225224  1 Cl pz                20     -2.069636  1 Cl py         
    76     -1.793121  2 O  pz               186     -1.733181  4 O  pz         
    16      1.476525  1 Cl px               131     -1.297023  3 O  pz         

 Vector   44  Occ=0.000000D+00  E= 2.082236D-01
              MO Center=  3.8D-02, -2.3D-02, -4.5D-02, r^2= 1.5D+01
   Bfn.  Coefficient  Atom+Function         Bfn.  Coefficient  Atom+Function  
  ----- ------------  ---------------      ----- ------------  ---------------
    20      7.061559  1 Cl py               174      6.561692  4 O  s          
    64     -6.497429  2 O  s                 19      3.845247  1 Cl px         
    17      2.425539  1 Cl py               240     -1.920785  5 O  py         
   130     -1.875552  3 O  py                16      1.320541  1 Cl px         
    75     -1.233816  2 O  py               129     -1.120834  3 O  px         

 Vector   45  Occ=0.000000D+00  E= 2.098471D-01
              MO Center=  2.9D-03, -1.8D-03, -1.4D-02, r^2= 1.5D+01
   Bfn.  Coefficient  Atom+Function         Bfn.  Coefficient  Atom+Function  
  ----- ------------  ---------------      ----- ------------  ---------------
    19      5.735936  1 Cl px                21     -4.868102  1 Cl pz         
    64     -4.624327  2 O  s                229      4.601877  5 O  s          
   119      4.557932  3 O  s                174     -4.536609  4 O  s          
    20     -3.328570  1 Cl py                16      1.965271  1 Cl px         
   131      1.693949  3 O  pz                18     -1.667962  1 Cl pz         

 Vector   46  Occ=0.000000D+00  E= 2.279413D-01
              MO Center=  2.9D-01, -1.6D-01, -2.5D-01, r^2= 1.3D+01
   Bfn.  Coefficient  Atom+Function         Bfn.  Coefficient  Atom+Function  
  ----- ------------  ---------------      ----- ------------  ---------------
    20      6.640515  1 Cl py               185     -3.981635  4 O  py         
    64      3.869938  2 O  s                174     -3.796606  4 O  s          
    75     -3.353861  2 O  py               130     -2.892848  3 O  py         
   240     -2.712676  5 O  py                19      2.643944  1 Cl px         
    17     -2.587847  1 Cl py                74     -2.210602  2 O  px         

 Vector   47  Occ=0.000000D+00  E= 2.279645D-01
              MO Center= -2.8D-01,  1.6D-01,  2.2D-01, r^2= 1.3D+01
   Bfn.  Coefficient  Atom+Function         Bfn.  Coefficient  Atom+Function  
  ----- ------------  ---------------      ----- ------------  ---------------
    21      5.717817  1 Cl pz                19      4.590235  1 Cl px         
   119     -3.831000  3 O  s                229      3.839874  5 O  s          
   241     -3.703965  5 O  pz               129     -2.983105  3 O  px         
   131     -2.773181  3 O  pz               186     -2.468479  4 O  pz         
    18     -2.229851  1 Cl pz                74     -2.193693  2 O  px         

 Vector   48  Occ=0.000000D+00  E= 2.289810D-01
              MO Center= -7.1D-03, -1.1D-02, -2.0D-02, r^2= 1.3D+01
   Bfn.  Coefficient  Atom+Function         Bfn.  Coefficient  Atom+Function  
  ----- ------------  ---------------      ----- ------------  ---------------
    19      4.943596  1 Cl px                21     -4.167753  1 Cl pz         
    20     -3.029895  1 Cl py               174      3.029640  4 O  s          
   119     -3.012403  3 O  s                229     -2.958682  5 O  s          
    64      2.926661  2 O  s                129     -2.898092  3 O  px         
    74     -2.880775  2 O  px               241      2.755172  5 O  pz         

 Vector   49  Occ=0.000000D+00  E= 2.426343D-01
              MO Center=  9.3D-04, -2.0D-03, -1.4D-02, r^2= 1.3D+01
   Bfn.  Coefficient  Atom+Function         Bfn.  Coefficient  Atom+Function  
  ----- ------------  ---------------      ----- ------------  ---------------
     6     43.133638  1 Cl s                 64    -12.343408  2 O  s          
   119    -12.335484  3 O  s                174    -12.336572  4 O  s          
   229    -12.338955  5 O  s                  5     -8.261026  1 Cl s          
    63      2.028808  2 O  s                118      2.027974  3 O  s          
   173      2.028605  4 O  s                228      2.028799  5 O  s          

 Vector   50  Occ=0.000000D+00  E= 3.008290D-01
              MO Center=  7.6D-03,  2.9D-03, -1.2D-02, r^2= 2.5D+00
   Bfn.  Coefficient  Atom+Function         Bfn.  Coefficient  Atom+Function  
  ----- ------------  ---------------      ----- ------------  ---------------
    38      2.041780  1 Cl dyz               36      1.171666  1 Cl dxz        
    35      0.904659  1 Cl dxy               37     -0.814309  1 Cl dyy        
    34      0.740621  1 Cl dxx              237     -0.665283  5 O  py         
   127      0.651460  3 O  py               183      0.643633  4 O  pz         
    73     -0.620198  2 O  pz                32      0.446765  1 Cl dyz        

 Vector   51  Occ=0.000000D+00  E= 3.012337D-01
              MO Center=  1.7D-02,  9.8D-03, -7.9D-03, r^2= 5.8D+00
   Bfn.  Coefficient  Atom+Function         Bfn.  Coefficient  Atom+Function  
  ----- ------------  ---------------      ----- ------------  ---------------
    35      3.066413  1 Cl dxy               36     -2.109556  1 Cl dxz        
   173     -1.979060  4 O  s                118      1.959457  3 O  s          
   228      1.916971  5 O  s                 63     -1.896433  2 O  s          
    37      1.702743  1 Cl dyy               39     -1.681109  1 Cl dzz        
    38      1.345544  1 Cl dyz              238     -1.196759  5 O  pz         

 Vector   52  Occ=0.000000D+00  E= 3.020699D-01
              MO Center=  3.6D-01, -2.2D-01, -3.3D-01, r^2= 5.6D+00
   Bfn.  Coefficient  Atom+Function         Bfn.  Coefficient  Atom+Function  
  ----- ------------  ---------------      ----- ------------  ---------------
   228     -2.688498  5 O  s                118      2.674247  3 O  s          
    35      2.585135  1 Cl dxy               39      2.429985  1 Cl dzz        
    36     -1.743172  1 Cl dxz              238      1.682008  5 O  pz         
    34     -1.370959  1 Cl dxx              126      1.333763  3 O  px         
   229     -1.276274  5 O  s                119      1.265150  3 O  s          

 Vector   53  Occ=0.000000D+00  E= 3.021017D-01
              MO Center= -3.8D-01,  2.0D-01,  2.9D-01, r^2= 5.6D+00
   Bfn.  Coefficient  Atom+Function         Bfn.  Coefficient  Atom+Function  
  ----- ------------  ---------------      ----- ------------  ---------------
    38      2.775224  1 Cl dyz               63      2.714016  2 O  s          
   173     -2.650633  4 O  s                 34     -2.244625  1 Cl dxx        
   182     -1.653448  4 O  py                37      1.614105  1 Cl dyy        
    35     -1.504343  1 Cl dxy               20      1.433298  1 Cl py         
    64      1.286770  2 O  s                 51     -1.265505  1 Cl fxxy       

 Vector   54  Occ=0.000000D+00  E= 3.085324D-01
              MO Center=  5.6D-04, -1.6D-03, -1.3D-02, r^2= 2.5D+00
   Bfn.  Coefficient  Atom+Function         Bfn.  Coefficient  Atom+Function  
  ----- ------------  ---------------      ----- ------------  ---------------
    36      2.065256  1 Cl dxz               35      1.448713  1 Cl dxy        
    38     -1.207201  1 Cl dyz              128      0.725734  3 O  pz         
   181      0.669046  4 O  px               236     -0.665186  5 O  px         
    72     -0.637365  2 O  py                37      0.468061  1 Cl dyy        
    30      0.453729  1 Cl dxz                6      0.451210  1 Cl s          

 Vector   55  Occ=0.000000D+00  E= 3.576314D-01
              MO Center=  2.5D-03, -2.0D-03, -1.5D-02, r^2= 9.9D+00
   Bfn.  Coefficient  Atom+Function         Bfn.  Coefficient  Atom+Function  
  ----- ------------  ---------------      ----- ------------  ---------------
     5     11.629363  1 Cl s                  6      8.592554  1 Cl s          
    64     -4.826894  2 O  s                119     -4.820863  3 O  s          
   174     -4.823240  4 O  s                229     -4.822215  5 O  s          
    34      3.847134  1 Cl dxx               37      3.837801  1 Cl dyy        
    39      3.842056  1 Cl dzz               63     -2.856826  2 O  s          

 Vector   56  Occ=0.000000D+00  E= 3.972169D-01
              MO Center= -6.4D-02,  3.2D-02,  3.5D-02, r^2= 9.4D+00
   Bfn.  Coefficient  Atom+Function         Bfn.  Coefficient  Atom+Function  
  ----- ------------  ---------------      ----- ------------  ---------------
    17     14.351541  1 Cl py                18    -10.621986  1 Cl pz         
   118     -6.098648  3 O  s                228      6.060243  5 O  s          
   173      5.523462  4 O  s                 63     -5.484330  2 O  s          
   238     -5.215630  5 O  pz               126     -4.723141  3 O  px         
    71      4.336592  2 O  px                34      4.215335  1 Cl dxx        

 Vector   57  Occ=0.000000D+00  E= 3.972219D-01
              MO Center=  6.3D-02, -4.0D-02, -6.6D-02, r^2= 9.4D+00
   Bfn.  Coefficient  Atom+Function         Bfn.  Coefficient  Atom+Function  
  ----- ------------  ---------------      ----- ------------  ---------------
    16     12.809740  1 Cl px                18      9.749873  1 Cl pz         
    17      7.750266  1 Cl py                63     -6.073212  2 O  s          
   173      6.088098  4 O  s                118      5.497835  3 O  s          
   228     -5.510334  5 O  s                182      5.044277  4 O  py         
    35      4.793911  1 Cl dxy              238      4.737365  5 O  pz         

 Vector   58  Occ=0.000000D+00  E= 3.998091D-01
              MO Center=  5.7D-03,  2.0D-03, -1.2D-02, r^2= 9.3D+00
   Bfn.  Coefficient  Atom+Function         Bfn.  Coefficient  Atom+Function  
  ----- ------------  ---------------      ----- ------------  ---------------
    16     12.487604  1 Cl px                18    -10.589242  1 Cl pz         
    17     -7.317237  1 Cl py                63     -5.891212  2 O  s          
   118      5.853508  3 O  s                228      5.880410  5 O  s          
   173     -5.840540  4 O  s                 35      5.051712  1 Cl dxy        
   238     -5.023109  5 O  pz               182     -4.830913  4 O  py         

 Vector   59  Occ=0.000000D+00  E= 4.194432D-01
              MO Center=  2.0D-03, -2.1D-03, -1.4D-02, r^2= 8.6D+00
   Bfn.  Coefficient  Atom+Function         Bfn.  Coefficient  Atom+Function  
  ----- ------------  ---------------      ----- ------------  ---------------
    38      8.199901  1 Cl dyz               36      4.923986  1 Cl dxz        
    35      3.301891  1 Cl dxy               37     -3.086436  1 Cl dyy        
    34      3.053477  1 Cl dxx              127      2.358326  3 O  py         
   237     -2.355671  5 O  py                73     -2.218570  2 O  pz         
   183      2.214758  4 O  pz               258      1.780182  5 O  dyz        

 Vector   60  Occ=0.000000D+00  E= 4.227372D-01
              MO Center=  1.7D-03, -1.8D-03, -1.4D-02, r^2= 8.5D+00
   Bfn.  Coefficient  Atom+Function         Bfn.  Coefficient  Atom+Function  
  ----- ------------  ---------------      ----- ------------  ---------------
    36      8.449508  1 Cl dxz               35      5.901840  1 Cl dxy        
    38     -5.006518  1 Cl dyz              128      2.631905  3 O  pz         
   181      2.389854  4 O  px               236     -2.380209  5 O  px         
    72     -2.313460  2 O  py               200      1.809007  4 O  dxy        
   256      1.775101  5 O  dxz               37      1.678668  1 Cl dyy        

 Vector   61  Occ=0.000000D+00  E= 5.744409D-01
              MO Center=  1.1D-03, -4.1D-03, -1.5D-02, r^2= 5.5D+00
   Bfn.  Coefficient  Atom+Function         Bfn.  Coefficient  Atom+Function  
  ----- ------------  ---------------      ----- ------------  ---------------
   148     -1.031196  3 O  dyz               93      0.973019  2 O  dyz        
   203      0.924576  4 O  dyz              258     -0.866071  5 O  dyz        
    58     -0.810011  1 Cl fyzz             146     -0.619885  3 O  dxz        
   201      0.613535  4 O  dxz               53     -0.587150  1 Cl fxyy       
    91      0.521780  2 O  dxz              256     -0.515568  5 O  dxz        

 Vector   62  Occ=0.000000D+00  E= 5.751854D-01
              MO Center=  1.3D-02, -6.8D-03, -2.2D-02, r^2= 5.5D+00
   Bfn.  Coefficient  Atom+Function         Bfn.  Coefficient  Atom+Function  
  ----- ------------  ---------------      ----- ------------  ---------------
   201     -1.229189  4 O  dxz               91      1.143335  2 O  dxz        
   146      1.071600  3 O  dxz              256     -0.992086  5 O  dxz        
    53      0.919192  1 Cl fxyy             255     -0.917323  5 O  dxy        
    55     -0.903831  1 Cl fxzz             145      0.792666  3 O  dxy        
    90      0.732682  2 O  dxy               54      0.679895  1 Cl fxyz       

 Vector   63  Occ=0.000000D+00  E= 5.752059D-01
              MO Center= -6.9D-03,  5.1D-03, -6.3D-03, r^2= 5.5D+00
   Bfn.  Coefficient  Atom+Function         Bfn.  Coefficient  Atom+Function  
  ----- ------------  ---------------      ----- ------------  ---------------
    93      1.100630  2 O  dyz              148     -0.989983  3 O  dyz        
   203     -0.974938  4 O  dyz              258      0.912616  5 O  dyz        
    58      0.820471  1 Cl fyzz              53     -0.578464  1 Cl fxyy       
   201      0.544499  4 O  dxz               54      0.510016  1 Cl fxyz       
    91     -0.500363  2 O  dxz              147      0.495497  3 O  dyy        

 Vector   64  Occ=0.000000D+00  E= 5.879494D-01
              MO Center=  8.1D-04, -3.3D-03, -1.5D-02, r^2= 8.1D+00
   Bfn.  Coefficient  Atom+Function         Bfn.  Coefficient  Atom+Function  
  ----- ------------  ---------------      ----- ------------  ---------------
   130      1.004457  3 O  py               240     -1.004893  5 O  py         
   127     -0.976219  3 O  py               237      0.975176  5 O  py         
   186     -0.944682  4 O  pz                76      0.939947  2 O  pz         
    73     -0.912759  2 O  pz               183      0.916313  4 O  pz         
   258      0.617555  5 O  dyz              129      0.596948  3 O  px         

 Vector   65  Occ=0.000000D+00  E= 5.911055D-01
              MO Center=  1.7D-01, -9.4D-02, -1.5D-01, r^2= 8.0D+00
   Bfn.  Coefficient  Atom+Function         Bfn.  Coefficient  Atom+Function  
  ----- ------------  ---------------      ----- ------------  ---------------
    76      1.331305  2 O  pz               236      1.199854  5 O  px         
   128      1.059117  3 O  pz               239     -1.062128  5 O  px         
    18     -1.010254  1 Cl pz               184      0.998985  4 O  px         
    21     -0.979772  1 Cl pz                73     -0.840796  2 O  pz         
   130     -0.842298  3 O  py                17      0.828275  1 Cl py         

 Vector   66  Occ=0.000000D+00  E= 5.911082D-01
              MO Center= -1.5D-01,  9.4D-02,  1.2D-01, r^2= 8.0D+00
   Bfn.  Coefficient  Atom+Function         Bfn.  Coefficient  Atom+Function  
  ----- ------------  ---------------      ----- ------------  ---------------
   240      1.334603  5 O  py               186      1.043385  4 O  pz         
   130      0.987012  3 O  py                72      0.952096  2 O  py         
   129      0.943140  3 O  px               183     -0.934028  4 O  pz         
    16     -0.910574  1 Cl px               181      0.913708  4 O  px         
    17     -0.904491  1 Cl py                74      0.899600  2 O  px         

 Vector   67  Occ=0.000000D+00  E= 5.949523D-01
              MO Center=  4.8D-01, -3.0D-01, -4.3D-01, r^2= 7.0D+00
   Bfn.  Coefficient  Atom+Function         Bfn.  Coefficient  Atom+Function  
  ----- ------------  ---------------      ----- ------------  ---------------
    17      3.775616  1 Cl py                20      3.142079  1 Cl py         
    16      2.546384  1 Cl px                19      2.121847  1 Cl px         
    64      2.070736  2 O  s                174     -2.026440  4 O  s          
    75     -1.976618  2 O  py               185     -1.619440  4 O  py         
   184     -1.492188  4 O  px               130     -1.438522  3 O  py         

 Vector   68  Occ=0.000000D+00  E= 5.949951D-01
              MO Center= -4.9D-01,  2.9D-01,  3.9D-01, r^2= 7.0D+00
   Bfn.  Coefficient  Atom+Function         Bfn.  Coefficient  Atom+Function  
  ----- ------------  ---------------      ----- ------------  ---------------
    18      3.703692  1 Cl pz                21      3.082265  1 Cl pz         
    16      2.092642  1 Cl px               229      2.059200  5 O  s          
   119     -2.030388  3 O  s                131     -2.012321  3 O  pz         
    19      1.739415  1 Cl px                17     -1.647849  1 Cl py         
   241     -1.491680  5 O  pz               186     -1.426148  4 O  pz         

 Vector   69  Occ=0.000000D+00  E= 5.959082D-01
              MO Center=  8.9D-03,  4.0D-03, -1.1D-02, r^2= 7.2D+00
   Bfn.  Coefficient  Atom+Function         Bfn.  Coefficient  Atom+Function  
  ----- ------------  ---------------      ----- ------------  ---------------
    16      3.285788  1 Cl px                19      2.820249  1 Cl px         
    18     -2.764822  1 Cl pz                21     -2.373727  1 Cl pz         
    17     -2.042234  1 Cl py                20     -1.749075  1 Cl py         
    54      1.692692  1 Cl fxyz             239     -1.468936  5 O  px         
   184     -1.461365  4 O  px               174      1.412110  4 O  s          

 Vector   70  Occ=0.000000D+00  E= 6.051919D-01
              MO Center=  8.9D-04, -1.5D-03, -1.3D-02, r^2= 5.0D+00
   Bfn.  Coefficient  Atom+Function         Bfn.  Coefficient  Atom+Function  
  ----- ------------  ---------------      ----- ------------  ---------------
   148      0.699703  3 O  dyz               32     -0.627776  1 Cl dyz        
    90      0.476972  2 O  dxy              255      0.452572  5 O  dxy        
    94      0.439772  2 O  dzz              204     -0.435799  4 O  dzz        
   146      0.413629  3 O  dxz              254      0.413191  5 O  dxx        
   257     -0.411198  5 O  dyy              199      0.408032  4 O  dxx        

 Vector   71  Occ=0.000000D+00  E= 6.074940D-01
              MO Center=  1.5D-03, -2.6D-03, -1.5D-02, r^2= 5.0D+00
   Bfn.  Coefficient  Atom+Function         Bfn.  Coefficient  Atom+Function  
  ----- ------------  ---------------      ----- ------------  ---------------
   255      0.839670  5 O  dxy              201      0.702809  4 O  dxz        
    30     -0.647516  1 Cl dxz               93     -0.595278  2 O  dyz        
    36     -0.515600  1 Cl dxz              200     -0.501342  4 O  dxy        
   149     -0.495861  3 O  dzz               29     -0.451041  1 Cl dxy        
   145      0.405016  3 O  dxy               91      0.390953  2 O  dxz        

 Vector   72  Occ=0.000000D+00  E= 6.132139D-01
              MO Center= -3.4D-01,  2.0D-01,  2.6D-01, r^2= 7.3D+00
   Bfn.  Coefficient  Atom+Function         Bfn.  Coefficient  Atom+Function  
  ----- ------------  ---------------      ----- ------------  ---------------
   119      6.464873  3 O  s                229     -6.359570  5 O  s          
   118     -3.810822  3 O  s                228      3.753005  5 O  s          
   259      3.172977  5 O  dzz               59     -2.959793  1 Cl fzzz       
    52     -2.800024  1 Cl fxxz              57     -2.644031  1 Cl fyyz       
   238     -2.627425  5 O  pz                21      2.529029  1 Cl pz         

 Vector   73  Occ=0.000000D+00  E= 6.132593D-01
              MO Center=  3.3D-01, -2.2D-01, -3.0D-01, r^2= 7.3D+00
   Bfn.  Coefficient  Atom+Function         Bfn.  Coefficient  Atom+Function  
  ----- ------------  ---------------      ----- ------------  ---------------
   174     -6.511220  4 O  s                 64      6.308385  2 O  s          
   173      3.838180  4 O  s                 63     -3.728530  2 O  s          
    51      3.159989  1 Cl fxxy              56      3.155795  1 Cl fyyy       
    58      2.980225  1 Cl fyzz             202      2.969928  4 O  dyy        
    20     -2.755148  1 Cl py               182      2.524308  4 O  py         

 Vector   74  Occ=0.000000D+00  E= 6.144133D-01
              MO Center=  2.0D-02,  1.3D-02, -4.9D-03, r^2= 7.6D+00
   Bfn.  Coefficient  Atom+Function         Bfn.  Coefficient  Atom+Function  
  ----- ------------  ---------------      ----- ------------  ---------------
    64      4.767482  2 O  s                229     -4.698146  5 O  s          
   119     -4.547257  3 O  s                174      4.488278  4 O  s          
    63     -2.675199  2 O  s                228      2.632320  5 O  s          
   118      2.542129  3 O  s                 50      2.528174  1 Cl fxxx       
    53      2.521181  1 Cl fxyy             173     -2.505996  4 O  s          

 Vector   75  Occ=0.000000D+00  E= 6.574306D-01
              MO Center=  9.2D-05, -2.4D-03, -1.4D-02, r^2= 8.9D+00
   Bfn.  Coefficient  Atom+Function         Bfn.  Coefficient  Atom+Function  
  ----- ------------  ---------------      ----- ------------  ---------------
     6     28.295643  1 Cl s                  5    -15.747306  1 Cl s          
    64     -9.472816  2 O  s                119     -9.480245  3 O  s          
   174     -9.478847  4 O  s                229     -9.476911  5 O  s          
    63      2.441911  2 O  s                118      2.431755  3 O  s          
   173      2.433570  4 O  s                228      2.436608  5 O  s          

 Vector   76  Occ=0.000000D+00  E= 7.099563D-01
              MO Center=  2.7D-03, -1.7D-03, -1.4D-02, r^2= 7.8D+00
   Bfn.  Coefficient  Atom+Function         Bfn.  Coefficient  Atom+Function  
  ----- ------------  ---------------      ----- ------------  ---------------
    16      6.655870  1 Cl px                18     -5.632260  1 Cl pz         
    63     -4.718365  2 O  s                118      4.727235  3 O  s          
   173     -4.727098  4 O  s                228      4.718020  5 O  s          
   238     -4.373128  5 O  pz                35      4.163290  1 Cl dxy        
   182     -4.131597  4 O  py                64     -3.960811  2 O  s          

 Vector   77  Occ=0.000000D+00  E= 7.111697D-01
              MO Center=  1.5D-02, -8.4D-03, -2.4D-02, r^2= 7.8D+00
   Bfn.  Coefficient  Atom+Function         Bfn.  Coefficient  Atom+Function  
  ----- ------------  ---------------      ----- ------------  ---------------
    17      7.772945  1 Cl py                63     -6.573386  2 O  s          
   173      6.561385  4 O  s                182      5.718582  4 O  py         
    64     -5.639960  2 O  s                174      5.621147  4 O  s          
    16      5.114251  1 Cl px                71      4.998705  2 O  px         
    38     -3.434030  1 Cl dyz               35      2.903096  1 Cl dxy        

 Vector   78  Occ=0.000000D+00  E= 7.111745D-01
              MO Center= -9.2D-03,  4.8D-03, -4.1D-03, r^2= 7.8D+00
   Bfn.  Coefficient  Atom+Function         Bfn.  Coefficient  Atom+Function  
  ----- ------------  ---------------      ----- ------------  ---------------
    18      7.509374  1 Cl pz               118      6.557446  3 O  s          
   228     -6.567392  5 O  s                238      6.096901  5 O  pz         
   119      5.623612  3 O  s                229     -5.636223  5 O  s          
   126      4.962302  3 O  px                16      4.326112  1 Cl px         
    17     -3.412681  1 Cl py                39      3.297900  1 Cl dzz        

 Vector   79  Occ=0.000000D+00  E= 7.457599D-01
              MO Center= -1.0D-01,  5.8D-02,  7.3D-02, r^2= 5.1D+00
   Bfn.  Coefficient  Atom+Function         Bfn.  Coefficient  Atom+Function  
  ----- ------------  ---------------      ----- ------------  ---------------
    18      5.020985  1 Cl pz                16      4.329576  1 Cl px         
   118      2.826363  3 O  s                228     -2.827931  5 O  s          
    21     -2.541827  1 Cl pz               238      2.367306  5 O  pz         
    19     -2.191154  1 Cl px               259     -2.045469  5 O  dzz        
    73     -1.995323  2 O  pz               127     -1.922971  3 O  py         

 Vector   80  Occ=0.000000D+00  E= 7.457748D-01
              MO Center=  1.1D-01, -6.2D-02, -1.0D-01, r^2= 5.1D+00
   Bfn.  Coefficient  Atom+Function         Bfn.  Coefficient  Atom+Function  
  ----- ------------  ---------------      ----- ------------  ---------------
    17      6.028580  1 Cl py                20     -3.051228  1 Cl py         
    63     -2.831215  2 O  s                173      2.816280  4 O  s          
    71      2.576092  2 O  px                16      1.996613  1 Cl px         
    18     -1.902525  1 Cl pz               183      1.892100  4 O  pz         
   182      1.814043  4 O  py               126     -1.787108  3 O  px         

 Vector   81  Occ=0.000000D+00  E= 7.463900D-01
              MO Center= -4.6D-06, -3.2D-03, -1.5D-02, r^2= 5.2D+00
   Bfn.  Coefficient  Atom+Function         Bfn.  Coefficient  Atom+Function  
  ----- ------------  ---------------      ----- ------------  ---------------
    16      4.179071  1 Cl px                18     -3.525154  1 Cl pz         
    17     -2.506762  1 Cl py                19     -2.416722  1 Cl px         
    21      2.040344  1 Cl pz                72      2.049782  2 O  py         
   128      2.004437  3 O  pz               118      1.925228  3 O  s          
   173     -1.930322  4 O  s                 63     -1.899254  2 O  s          

 Vector   82  Occ=0.000000D+00  E= 7.611839D-01
              MO Center=  2.0D-03, -1.7D-03, -1.4D-02, r^2= 7.0D+00
   Bfn.  Coefficient  Atom+Function         Bfn.  Coefficient  Atom+Function  
  ----- ------------  ---------------      ----- ------------  ---------------
     6     33.392313  1 Cl s                  5    -17.693476  1 Cl s          
    64     -9.976357  2 O  s                119     -9.974115  3 O  s          
   174     -9.973886  4 O  s                229     -9.975337  5 O  s          
    37     -4.208712  1 Cl dyy               63      4.212287  2 O  s          
   118      4.214235  3 O  s                173      4.214407  4 O  s          

 Vector   83  Occ=0.000000D+00  E= 7.810906D-01
              MO Center=  2.3D-03, -1.7D-03, -1.4D-02, r^2= 6.2D+00
   Bfn.  Coefficient  Atom+Function         Bfn.  Coefficient  Atom+Function  
  ----- ------------  ---------------      ----- ------------  ---------------
    38      7.141330  1 Cl dyz               36      4.284462  1 Cl dxz        
    35      2.874286  1 Cl dxy              127      2.808205  3 O  py         
   237     -2.807576  5 O  py                37     -2.691304  1 Cl dyy        
    34      2.655781  1 Cl dxx               73     -2.643345  2 O  pz         
   183      2.639715  4 O  pz               126      1.671300  3 O  px         

 Vector   84  Occ=0.000000D+00  E= 7.840666D-01
              MO Center=  2.4D-03, -2.0D-03, -1.4D-02, r^2= 6.2D+00
   Bfn.  Coefficient  Atom+Function         Bfn.  Coefficient  Atom+Function  
  ----- ------------  ---------------      ----- ------------  ---------------
    36      7.285096  1 Cl dxz               35      5.083982  1 Cl dxy        
    38     -4.313901  1 Cl dyz              128      3.121359  3 O  pz         
   181      2.818763  4 O  px               236     -2.805708  5 O  px         
    72     -2.759847  2 O  py               237      1.671802  5 O  py         
    73     -1.546372  2 O  pz               183     -1.535567  4 O  pz         

 Vector   85  Occ=0.000000D+00  E= 9.094732D-01
              MO Center=  1.6D-03, -2.2D-03, -1.4D-02, r^2= 6.9D+00
   Bfn.  Coefficient  Atom+Function         Bfn.  Coefficient  Atom+Function  
  ----- ------------  ---------------      ----- ------------  ---------------
     5     35.522068  1 Cl s                238      8.628143  5 O  pz         
    63     -8.291520  2 O  s                118     -8.294708  3 O  s          
   173     -8.297400  4 O  s                228     -8.288550  5 O  s          
   182     -8.104149  4 O  py                71      7.079093  2 O  px         
   126     -7.037576  3 O  px               127      4.197607  3 O  py         

 Vector   86  Occ=0.000000D+00  E= 9.463432D-01
              MO Center=  4.6D-03,  6.9D-04, -1.2D-02, r^2= 5.1D+00
   Bfn.  Coefficient  Atom+Function         Bfn.  Coefficient  Atom+Function  
  ----- ------------  ---------------      ----- ------------  ---------------
   258      1.931791  5 O  dyz              127      1.906861  3 O  py         
   237     -1.903435  5 O  py                73      1.789683  2 O  pz         
   183     -1.765613  4 O  pz               203     -1.232431  4 O  dyz        
   200     -1.179429  4 O  dxy              256      1.148831  5 O  dxz        
   145      1.130718  3 O  dxy              236     -1.130412  5 O  px         

 Vector   87  Occ=0.000000D+00  E= 9.498744D-01
              MO Center=  1.9D-02, -1.3D-02, -2.9D-02, r^2= 5.4D+00
   Bfn.  Coefficient  Atom+Function         Bfn.  Coefficient  Atom+Function  
  ----- ------------  ---------------      ----- ------------  ---------------
    16     10.570115  1 Cl px                18      8.027114  1 Cl pz         
    17      6.367135  1 Cl py               182      5.147370  4 O  py         
   127     -4.875247  3 O  py                63     -4.426158  2 O  s          
   173      4.418304  4 O  s                118      4.016245  3 O  s          
   228     -4.013043  5 O  s                238      4.026634  5 O  pz         

[...]
    69     -7.119199  2 O  py               178      7.046106  4 O  px         
   233     -7.012648  5 O  px               128      6.416496  3 O  pz         
    35      6.211009  1 Cl dxy               38     -5.845359  1 Cl dyz        
    72     -5.738347  2 O  py               181      5.679917  4 O  px         

 Vector  270  Occ=0.000000D+00  E= 1.442796D+01
              MO Center=  2.1D-03, -2.1D-03, -1.4D-02, r^2= 3.6D+00
   Bfn.  Coefficient  Atom+Function         Bfn.  Coefficient  Atom+Function  
  ----- ------------  ---------------      ----- ------------  ---------------
    38      8.671000  1 Cl dyz              124      7.289379  3 O  py         
    70     -6.993601  2 O  pz               234     -7.012456  5 O  py         
   180      6.594951  4 O  pz               127      5.875651  3 O  py         
    36      5.801175  1 Cl dxz               73     -5.637232  2 O  pz         
   237     -5.652179  5 O  py               183      5.314839  4 O  pz         

 Vector  271  Occ=0.000000D+00  E= 1.523116D+01
              MO Center=  1.2D-03, -2.2D-03, -1.4D-02, r^2= 3.4D+00
   Bfn.  Coefficient  Atom+Function         Bfn.  Coefficient  Atom+Function  
  ----- ------------  ---------------      ----- ------------  ---------------
     5     49.664516  1 Cl s                238      9.775782  5 O  pz         
   182     -9.182959  4 O  py               235      8.547995  5 O  pz         
    71      8.004298  2 O  px               179     -8.030399  4 O  py         
   126     -7.959796  3 O  px                68      6.997539  2 O  px         
   123     -6.959821  3 O  px                63     -5.861216  2 O  s          

 Vector  272  Occ=0.000000D+00  E= 1.642021D+01
              MO Center= -4.0D-01,  1.5D-01,  7.8D-01, r^2= 2.5D+00
   Bfn.  Coefficient  Atom+Function         Bfn.  Coefficient  Atom+Function  
  ----- ------------  ---------------      ----- ------------  ---------------
    18     12.872383  1 Cl pz               238     12.583542  5 O  pz         
   228    -12.134699  5 O  s                118      8.729239  3 O  s          
   235      8.254395  5 O  pz               226     -7.728656  5 O  s          
   126      7.479232  3 O  px                16      5.937299  1 Cl px         
   116      5.560418  3 O  s                123      4.834859  3 O  px         

 Vector  273  Occ=0.000000D+00  E= 1.642023D+01
              MO Center= -4.0D-01, -1.3D-01, -3.5D-01, r^2= 3.0D+00
   Bfn.  Coefficient  Atom+Function         Bfn.  Coefficient  Atom+Function  
  ----- ------------  ---------------      ----- ------------  ---------------
   118     10.037174  3 O  s                 16      9.853224  1 Cl px         
   173     -9.297838  4 O  s                182     -9.080208  4 O  py         
    17     -8.870187  1 Cl py               126      8.387999  3 O  px         
   116      6.393886  3 O  s                171     -5.921560  4 O  s          
   179     -5.938684  4 O  py               123      5.555168  3 O  px         

 Vector  274  Occ=0.000000D+00  E= 1.642033D+01
              MO Center=  8.1D-01, -2.9D-02, -4.7D-01, r^2= 2.4D+00
   Bfn.  Coefficient  Atom+Function         Bfn.  Coefficient  Atom+Function  
  ----- ------------  ---------------      ----- ------------  ---------------
    63     12.208361  2 O  s                 17    -11.052241  1 Cl py         
    71    -10.522431  2 O  px               173     -8.831398  4 O  s          
   182     -8.442461  4 O  py                16     -8.310379  1 Cl px         
    61      7.774289  2 O  s                 68     -6.798897  2 O  px         
   171     -5.625533  4 O  s                179     -5.638248  4 O  py         

 Vector  275  Occ=0.000000D+00  E= 1.687895D+01
              MO Center=  5.0D-04, -2.2D-03, -1.4D-02, r^2= 2.6D+00
   Bfn.  Coefficient  Atom+Function         Bfn.  Coefficient  Atom+Function  
  ----- ------------  ---------------      ----- ------------  ---------------
     5     19.836215  1 Cl s                  6    -11.620118  1 Cl s          
    63      4.051038  2 O  s                118      4.052899  3 O  s          
   173      4.051554  4 O  s                228      4.052170  5 O  s          
    64      4.018038  2 O  s                119      4.017437  3 O  s          
   174      4.017443  4 O  s                229      4.017577  5 O  s          

 Vector  276  Occ=0.000000D+00  E= 1.704146D+01
              MO Center= -5.7D-01,  3.0D-01,  2.8D-01, r^2= 2.3D+00
   Bfn.  Coefficient  Atom+Function         Bfn.  Coefficient  Atom+Function  
  ----- ------------  ---------------      ----- ------------  ---------------
    18     13.240458  1 Cl pz               238     12.439939  5 O  pz         
   126     11.979400  3 O  px                17     -9.676082  1 Cl py         
   235      9.130854  5 O  pz               123      8.732987  3 O  px         
    16      8.009252  1 Cl px               127     -6.770394  3 O  py         
   144      6.301721  3 O  dxx              259     -6.130810  5 O  dzz        

 Vector  277  Occ=0.000000D+00  E= 1.704173D+01
              MO Center=  5.9D-02, -8.4D-01, -1.0D-01, r^2= 2.1D+00
   Bfn.  Coefficient  Atom+Function         Bfn.  Coefficient  Atom+Function  
  ----- ------------  ---------------      ----- ------------  ---------------
   182     15.496929  4 O  py                17     15.272144  1 Cl py         
   179     11.358032  4 O  py                18      9.717322  1 Cl pz         
   238      8.852555  5 O  pz               202      7.762392  4 O  dyy        
   235      6.500446  5 O  pz               206     -5.904246  4 O  fxxy       
   213     -5.829407  4 O  fyzz             211     -5.772886  4 O  fyyy       

 Vector  278  Occ=0.000000D+00  E= 1.704207D+01
              MO Center=  5.2D-01,  5.4D-01, -2.2D-01, r^2= 2.2D+00
   Bfn.  Coefficient  Atom+Function         Bfn.  Coefficient  Atom+Function  
  ----- ------------  ---------------      ----- ------------  ---------------
    16     16.238053  1 Cl px                71     12.843669  2 O  px         
    68      9.456944  2 O  px                18     -7.974310  1 Cl pz         
    72      7.790373  2 O  py                35      7.235730  1 Cl dxy        
   238     -7.225338  5 O  pz                89     -6.897965  2 O  dxx        
   126      6.446120  3 O  px                92     -5.768052  2 O  dyy        

 Vector  279  Occ=0.000000D+00  E= 3.251061D+01
              MO Center=  1.7D-03, -2.1D-03, -1.4D-02, r^2= 3.3D+00
   Bfn.  Coefficient  Atom+Function         Bfn.  Coefficient  Atom+Function  
  ----- ------------  ---------------      ----- ------------  ---------------
     5    115.117917  1 Cl s                  3    -57.050706  1 Cl s          
     2    -40.673572  1 Cl s                 63    -22.413423  2 O  s          
   118    -22.418015  3 O  s                173    -22.418470  4 O  s          
   228    -22.415374  5 O  s                238     12.667020  5 O  pz         
   182    -11.897629  4 O  py                71     10.377348  2 O  px         


   alpha - beta orbital overlaps 
   ----------------------------- 


   alpha      1      2      3      4      5      6      7      8      9     10
    beta      1      2      3      4      5      6      7      8      9     10
 overlap   1.000  0.999  0.998  0.928  0.930  1.000  1.000  1.000  1.000  1.000


   alpha     11     12     13     14     15     16     17     18     19     20
    beta     11     12     13     14     15     16     17     19     21     22
 overlap   0.999  0.999  0.999  1.000  0.967  0.963  0.989  1.000  0.982  0.985


   alpha     21     22     23     24     25     26     27     28     29     30
    beta     18     20     25     23     24     26     28     29     27     30
 overlap   0.994  1.000  1.000  0.983  0.983  1.000  0.998  0.998  0.998  1.000


   alpha     31     32     33     34     35     36     37     38     39     40
    beta     31     32     33     38     36     37     34     35     39     42
 overlap   0.997  0.997  1.000  1.000  0.999  0.999  1.000  1.000  1.000  1.000


   alpha     41     42     43     44     45     46     47     48     49     50
    beta     40     41     43     44     45     47     48     46     49     53
 overlap   0.995  0.995  0.999  0.999  1.000  0.997  0.999  0.997  1.000  0.999


   alpha     51     52     53     54     55     56     57     58     59     60
    beta     52     50     51     54     55     56     57     58     59     60
 overlap   0.998  0.999  0.998  1.000  1.000  0.996  0.996  1.000  0.999  1.000


   alpha     61     62     63     64     65     66     67     68     69     70
    beta     61     62     63     66     65     64     68     69     67     71
 overlap   1.000  0.986  0.986  1.000  0.729  0.728  0.906  0.908  0.998  0.999


   alpha     71     72     73     74     75     76     77     78     79     80
    beta     70     72     73     74     75     78     76     77     79     80
 overlap   0.999  1.000  1.000  1.000  1.000  0.999  1.000  1.000  1.000  0.995


   alpha     81     82     83     84     85     86     87     88     89     90
    beta     81     82     84     83     85     90     88     89     86     87
 overlap   0.994  1.000  1.000  1.000  1.000  0.988  0.984  0.975  0.988  0.991


   alpha     91     92     93     94     95     96     97     98     99    100
    beta     91     92     93     94     95     96     98     99     97    100
 overlap   1.000  0.997  0.996  0.998  1.000  1.000  0.998  0.997  0.995  1.000


   alpha    101    102    103    104    105    106    107    108    109    110
    beta    101    102    103    104    105    106    107    108    109    110
 overlap   0.999  0.999  1.000  0.999  0.998  0.998  1.000  1.000  1.000  1.000


   alpha    111    112    113    114    115    116    117    118    119    120
    beta    111    112    113    114    115    118    117    116    120    121
 overlap   0.985  0.985  0.997  0.999  0.996  0.999  0.702  0.700  0.732  0.736


   alpha    121    122    123    124    125    126    127    128    129    130
    beta    119    123    122    126    124    125    127    128    129    130
 overlap   0.998  1.000  1.000  0.996  0.996  0.994  0.946  0.979  0.938  0.785


   alpha    131    132    133    134    135    136    137    138    139    140
    beta    131    132    133    134    135    136    137    138    139    142
 overlap   0.794  0.976  1.000  1.000  0.768  0.865  0.864  1.000  0.999  1.000


   alpha    141    142    143    144    145    146    147    148    149    150
    beta    140    141    143    145    146    144    147    148    149    150
 overlap   0.996  0.996  0.999  0.997  0.998  0.999  0.960  0.861  0.863  0.996


   alpha    151    152    153    154    155    156    157    158    159    160
    beta    152    151    155    153    154    156    157    158    160    159
 overlap   1.000  0.996  1.000  0.990  0.990  0.998  0.998  0.996  1.000  1.000


   alpha    161    162    163    164    165    166    167    168    169    170
    beta    161    162    163    164    165    166    167    168    168    170
 overlap   0.998  0.992  0.992  0.999  0.999  0.880  0.880  0.681  0.709  0.881


   alpha    171    172    173    174    175    176    177    178    179    180
    beta    171    172    173    174    175    176    177    178    179    180
 overlap   1.000  1.000  1.000  1.000  0.983  0.983  1.000  1.000  1.000  0.905


   alpha    181    182    183    184    185    186    187    188    189    190
    beta    181    182    183    184    185    186    187    188    190    189
 overlap   0.906  0.990  0.997  0.991  0.990  1.000  1.000  1.000  0.996  0.996


   alpha    191    192    193    194    195    196    197    198    199    200
    beta    192    193    191    196    194    195    198    200    201    197
 overlap   0.995  0.997  0.999  1.000  0.996  0.996  1.000  0.894  0.894  1.000


   alpha    201    202    203    204    205    206    207    208    209    210
    beta    199    202    203    204    205    206    208    209    207    210
 overlap   1.000  1.000  1.000  0.999  0.953  0.953  0.965  0.975  0.987  0.991


   alpha    211    212    213    214    215    216    217    218    219    220
    beta    211    212    213    214    215    218    216    217    219    221
 overlap   0.975  0.973  0.974  0.999  0.974  0.997  0.873  0.872  0.999  1.000


   alpha    221    222    223    224    225    226    227    228    229    230
    beta    220    224    222    223    227    225    226    228    229    230
 overlap   0.999  0.999  0.985  0.985  0.953  0.983  0.953  0.999  0.999  0.999


   alpha    231    232    233    234    235    236    237    238    239    240
    beta    231    232    234    235    233    238    236    237    239    241
 overlap   1.000  1.000  0.998  0.999  0.998  0.999  0.998  0.998  1.000  0.999


   alpha    241    242    243    244    245    246    247    248    249    250
    beta    242    240    245    243    244    246    248    248    253    251
 overlap   0.999  0.999  0.999  0.999  0.999  0.855  0.739  0.647  0.998  0.999


   alpha    251    252    253    254    255    256    257    258    259    260
    beta    252    250    249    254    256    257    255    258    261    259
 overlap   0.997  0.775  0.774  1.000  1.000  0.999  1.000  1.000  0.979  0.986


   alpha    261    262    263    264    265    266    267    268    269    270
    beta    260    264    262    263    265    267    268    266    270    269
 overlap   0.990  1.000  1.000  1.000  1.000  0.996  0.996  1.000  0.998  0.998


   alpha    271    272    273    274    275    276    277    278    279
    beta    271    273    272    274    275    276    277    278    279
 overlap   1.000  0.971  0.976  0.996  1.000  0.999  0.992  0.992  1.000

     --------------------------
     Expectation value of S2:  
     --------------------------
      <S2> =      0.7543 (Exact =     0.7500)


 center of mass
 --------------
 x =   0.00362754 y =  -0.00379025 z =  -0.02687265

 moments of inertia (a.u.)
 ------------------
         340.266356154790          -0.014057264596           0.011573320726
          -0.014057264596         340.298579808266          -0.007165241848
           0.011573320726          -0.007165241848         340.276637380519

     Multipole analysis of the density
     ---------------------------------

     L   x y z        total         alpha         beta         nuclear
     -   - - -        -----         -----         ----         -------
     0   0 0 0     -0.000000    -25.000000    -24.000000     49.000000

     1   1 0 0     -0.000190     -0.089582     -0.088250      0.177642
     1   0 1 0     -0.000833      0.095151      0.089764     -0.185748
     1   0 0 1      0.000089      0.671914      0.644925     -1.316750

     2   2 0 0    -25.826448    -57.071930    -53.859451     85.104933
     2   1 1 0      0.050999     -0.018784      0.063426      0.006357
     2   1 0 1      0.074931     -0.019235      0.104728     -0.010562
     2   0 2 0    -25.765765    -57.082881    -53.771760     85.088876
     2   0 1 1     -0.042723      0.009314     -0.060612      0.008575
     2   0 0 2    -25.800019    -57.095071    -53.839479     85.134531


 Task  times  cpu:      135.5s     wall:      137.3s


                                NWChem Input Module
                                -------------------


 Summary of allocated global arrays
-----------------------------------
  No active global arrays


MA_summarize_allocated_blocks: starting scan ...
heap block 'gridpts', handle 101, address 0x10b960a8:
	type of elements:		double precision
	number of elements:		33554432
	address of client space:	0x10b96100
	index for client space:		10467193
	total number of bytes:		268435552
MA_summarize_allocated_blocks: scan completed: 1 heap block, 0 stack blocks
MA usage statistics:

	allocation statistics:
					      heap	     stack
					      ----	     -----
	current number of blocks	         1	         0
	maximum number of blocks	        21	        53
	current total bytes		 268435552	         0
	maximum total bytes		 269959568	  38091784
	maximum total K-bytes		    269960	     38092
	maximum total M-bytes		       270	        39


                                     CITATION
                                     --------
                Please cite the following reference when publishing
                           results obtained with NWChem:

          E. Apra, E. J. Bylaska, W. A. de Jong, N. Govind, K. Kowalski,
       T. P. Straatsma, M. Valiev, H. J. J. van Dam, Y. Alexeev, J. Anchell,
       V. Anisimov, F. W. Aquino, R. Atta-Fynn, J. Autschbach, N. P. Bauman,
     J. C. Becca, D. E. Bernholdt, K. Bhaskaran-Nair, S. Bogatko, P. Borowski,
         J. Boschen, J. Brabec, A. Bruner, E. Cauet, Y. Chen, G. N. Chuev,
      C. J. Cramer, J. Daily, M. J. O. Deegan, T. H. Dunning Jr., M. Dupuis,
   K. G. Dyall, G. I. Fann, S. A. Fischer, A. Fonari, H. Fruchtl, L. Gagliardi,
      J. Garza, N. Gawande, S. Ghosh, K. Glaesemann, A. W. Gotz, J. Hammond,
       V. Helms, E. D. Hermes, K. Hirao, S. Hirata, M. Jacquelin, L. Jensen,
   B. G. Johnson, H. Jonsson, R. A. Kendall, M. Klemm, R. Kobayashi, V. Konkov,
      S. Krishnamoorthy, M. Krishnan, Z. Lin, R. D. Lins, R. J. Littlefield,
      A. J. Logsdail, K. Lopata, W. Ma, A. V. Marenich, J. Martin del Campo,
   D. Mejia-Rodriguez, J. E. Moore, J. M. Mullin, T. Nakajima, D. R. Nascimento,
    J. A. Nichols, P. J. Nichols, J. Nieplocha, A. Otero-de-la-Roza, B. Palmer,
    A. Panyala, T. Pirojsirikul, B. Peng, R. Peverati, J. Pittner, L. Pollack,
   R. M. Richard, P. Sadayappan, G. C. Schatz, W. A. Shelton, D. W. Silverstein,
   D. M. A. Smith, T. A. Soares, D. Song, M. Swart, H. L. Taylor, G. S. Thomas,
            V. Tipparaju, D. G. Truhlar, K. Tsemekhman, T. Van Voorhis,
      A. Vazquez-Mayagoitia, P. Verma, O. Villa, A. Vishnu, K. D. Vogiatzis,
        D. Wang, J. H. Weare, M. J. Williamson, T. L. Windus, K. Wolinski,
        A. T. Wong, Q. Wu, C. Yang, Q. Yu, M. Zacharias, Z. Zhang, Y. Zhao,
                                and R. J. Harrison
                        "NWChem: Past, present, and future
                         J. Chem. Phys. 152, 184102 (2020)
                               doi:10.1063/5.0004997

                                      AUTHORS
                                      -------
  E. Apra, E. J. Bylaska, N. Govind, K. Kowalski, M. Valiev, D. Mejia-Rodriguez,
       A. Kunitsa, N. P. Bauman, A. Panyala, W. A. de Jong, T. P. Straatsma,
   H. J. J. van Dam, D. Wang, T. L. Windus, J. Hammond, J. Autschbach, A. Woods,
    K. Bhaskaran-Nair, J. Brabec, K. Lopata, S. A. Fischer, S. Krishnamoorthy,
     M. Jacquelin, W. Ma, M. Klemm, O. Villa, Y. Chen, V. Anisimov, F. Aquino,
     S. Hirata, M. T. Hackler, E. Hermes, L. Jensen, J. E. Moore, J. C. Becca,
      V. Konjkov, T. Risthaus, M. Malagoli, A. Marenich, A. Otero-de-la-Roza,
        J. Mullin, P. Nichols, R. Peverati, J. Pittner, Y. Zhao, P.-D. Fan,
        A. Fonari, M. J. Williamson, R. J. Harrison, J. R. Rehr, M. Dupuis,
     D. Silverstein, D. M. A. Smith, J. Nieplocha, V. Tipparaju, M. Krishnan,
     B. E. Van Kuiken, A. Vazquez-Mayagoitia, M. Swart, Q. Wu, T. Van Voorhis,
     A. A. Auer, M. Nooijen, L. D. Crosby, E. Brown, G. Cisneros, G. I. Fann,
   H. Fruchtl, J. Garza, K. Hirao, R. A. Kendall, J. A. Nichols, K. Tsemekhman,
    K. Wolinski, J. Anchell, D. E. Bernholdt, P. Borowski, T. Clark, D. Clerc,
   H. Dachsel, M. J. O. Deegan, K. Dyall, D. Elwood, E. Glendening, M. Gutowski,
   A. C. Hess, J. Jaffe, B. G. Johnson, J. Ju, R. Kobayashi, R. Kutteh, Z. Lin,
   R. Littlefield, X. Long, B. Meng, T. Nakajima, S. Niu, L. Pollack, M. Rosing,
   K. Glaesemann, G. Sandrone, M. Stave, H. Taylor, G. Thomas, J. H. van Lenthe,
                               A. T. Wong, Z. Zhang.

 Total times  cpu:      135.9s     wall:      137.8s
