 argument  1 = 0e/mol.nwi
                                         
                                         


             Northwest Computational Chemistry Package (NWChem) 7.2.2
             --------------------------------------------------------


                    Environmental Molecular Sciences Laboratory
                       Pacific Northwest National Laboratory
                                Richland, WA 99352

                              Copyright (c) 1994-2022
                       Pacific Northwest National Laboratory
                            Battelle Memorial Institute

             NWChem is an open-source computational chemistry package
                        distributed under the terms of the
                      Educational Community License (ECL) 2.0
             A copy of the license is included with this distribution
                              in the LICENSE.TXT file

                                  ACKNOWLEDGMENT
                                  --------------

            This software and its documentation were developed at the
            EMSL at Pacific Northwest National Laboratory, a multiprogram
            national laboratory, operated for the U.S. Department of Energy
            by Battelle under Contract Number DE-AC05-76RL01830. Support
            for this work was provided by the Department of Energy Office
            of Biological and Environmental Research, Office of Basic
            Energy Sciences, and the Office of Advanced Scientific Computing.


           Job information
           ---------------

    hostname        = r310.ib.bridges2.psc.edu
    program         = nwchem
    date            = Tue Oct  1 15:24:14 2024

    compiled        = Mon_Mar_18_17:03:37_2024
    source          = /ocean/projects/pscstaff/mmadrid/nwchem-7.2.2
    nwchem branch   = 7.2.2
    nwchem revision = 74936fb9
    ga revision     = 5.8.0
    use scalapack   = F
    input           = 0e/mol.nwi
    prefix          = dft.
    data base       = .//dft.db
    status          = startup
    nproc           =       15
    time left       =     -1s



           Memory information
           ------------------

    heap     =   67108864 doubles =    512.0 Mbytes
    stack    =   67108861 doubles =    512.0 Mbytes
    global   =  134217728 doubles =   1024.0 Mbytes (distinct from heap & stack)
    total    =  268435453 doubles =   2048.0 Mbytes
    verify   = yes
    hardfail = no 


           Directory information
           ---------------------

  0 permanent = ./
  0 scratch   = /jet/home/hmt47/nwchem_scratch/




                                NWChem Input Module
                                -------------------


  library name resolved from: environment
  library file name is: </opt/packages/nwchem/nwchem7.2.2/share/nwchem/libraries/>
  


 Summary of "ao basis" -> "" (cartesian)
 ------------------------------------------------------------------------------
       Tag                 Description            Shells   Functions and Types
 ---------------- ------------------------------  ------  ---------------------
 *                        aug-cc-pVTZ                 on all atoms 


  pbe96 is a nonlocal functional; adding pw91lda local functional. 

 Scaling coordinates for geometry "geometry" by  1.889725989
 (inverse scale =  0.529177249)



                             Geometry "geometry" -> ""
                             -------------------------

 Output coordinates in angstroms (scale by  1.889725989 to convert to a.u.)

  No.       Tag          Charge          X              Y              Z
 ---- ---------------- ---------- -------------- -------------- --------------
    1 S                   16.0000    -0.00033402     0.00040839    -0.02351707
    2 O                    8.0000    -0.00091234     1.44351569    -0.53790438
    3 O                    8.0000     1.25137804    -0.72228747    -0.53147647
    4 O                    8.0000    -0.00134733     0.00430513     1.50845551
    5 O                    8.0000    -1.25042234    -0.72389274    -0.53320158

      Atomic Mass 
      ----------- 

      S                 31.972070
      O                 15.994910


 Effective nuclear repulsion energy (a.u.)     258.0748621488

            Nuclear Dipole moment (a.u.) 
            ----------------------------
        X                 Y               Z
 ---------------- ---------------- ----------------
    -0.0298124684     0.0371503500    -2.1340457893


            XYZ format geometry
            -------------------
     5
 geometry
 S                    -0.00033402     0.00040839    -0.02351707
 O                    -0.00091234     1.44351569    -0.53790438
 O                     1.25137804    -0.72228747    -0.53147647
 O                    -0.00134733     0.00430513     1.50845551
 O                    -1.25042234    -0.72389274    -0.53320158

 ==============================================================================
                                internuclear distances
 ------------------------------------------------------------------------------
       center one      |      center two      | atomic units |  angstroms
 ------------------------------------------------------------------------------
    2 O                |   1 S                |     2.89514  |     1.53204
    3 O                |   1 S                |     2.89510  |     1.53202
    4 O                |   1 S                |     2.89502  |     1.53198
    5 O                |   1 S                |     2.89511  |     1.53203
 ------------------------------------------------------------------------------
                         number of included internuclear distances:          4
 ==============================================================================



 ==============================================================================
                                 internuclear angles
 ------------------------------------------------------------------------------
        center 1       |       center 2       |       center 3       |  degrees
 ------------------------------------------------------------------------------
    2 O                |   1 S                |   3 O                |   109.47
    2 O                |   1 S                |   4 O                |   109.47
    2 O                |   1 S                |   5 O                |   109.47
    3 O                |   1 S                |   4 O                |   109.47
    3 O                |   1 S                |   5 O                |   109.47
    4 O                |   1 S                |   5 O                |   109.47
 ------------------------------------------------------------------------------
                            number of included internuclear angles:          6
 ==============================================================================




                                 NWChem DFT Module
                                 -----------------


                      Basis "ao basis" -> "ao basis" (cartesian)
                      -----
  S (Sulphur)
  -----------
            Exponent  Coefficients 
       -------------- ---------------------------------------------------------
  1 S  3.74100000E+05  0.000054
  1 S  5.60500000E+04  0.000421
  1 S  1.27600000E+04  0.002207
  1 S  3.61500000E+03  0.009193
  1 S  1.18300000E+03  0.032112
  1 S  4.28800000E+02  0.094668
  1 S  1.67800000E+02  0.223630
  1 S  6.94700000E+01  0.374393
  1 S  2.98400000E+01  0.329108
  1 S  1.27200000E+01  0.084704
  1 S  5.24400000E+00  0.000441
  1 S  2.21900000E+00  0.001648
  1 S  3.49000000E-01  0.000301

  2 S  3.74100000E+05 -0.000015
  2 S  5.60500000E+04 -0.000116
  2 S  1.27600000E+04 -0.000612
  2 S  3.61500000E+03 -0.002554
  2 S  1.18300000E+03 -0.009087
  2 S  4.28800000E+02 -0.027705
  2 S  1.67800000E+02 -0.072002
  2 S  6.94700000E+01 -0.146439
  2 S  2.98400000E+01 -0.195150
  2 S  1.27200000E+01  0.008192
  2 S  5.24400000E+00  0.516601
  2 S  2.21900000E+00  0.542178
  2 S  3.49000000E-01 -0.009181

  3 S  3.74100000E+05  0.000004
  3 S  5.60500000E+04  0.000034
  3 S  1.27600000E+04  0.000178
  3 S  3.61500000E+03  0.000741
  3 S  1.18300000E+03  0.002646
  3 S  4.28800000E+02  0.008075
  3 S  1.67800000E+02  0.021228
  3 S  6.94700000E+01  0.043832
  3 S  2.98400000E+01  0.061272
  3 S  1.27200000E+01 -0.003615
  3 S  5.24400000E+00 -0.204510
  3 S  2.21900000E+00 -0.381871
  3 S  3.49000000E-01  0.714147

  4 S  7.76700000E-01  1.000000

  5 S  1.32200000E-01  1.000000

  6 S  4.97000000E-02  1.000000

  7 P  5.74400000E+02  0.002423
  7 P  1.35800000E+02  0.019280
  7 P  4.31900000E+01  0.088540
  7 P  1.58700000E+01  0.254654
  7 P  6.20800000E+00  0.433984
  7 P  2.48300000E+00  0.354953
  7 P  3.22900000E-01 -0.005030

  8 P  5.74400000E+02 -0.000620
  8 P  1.35800000E+02 -0.004939
  8 P  4.31900000E+01 -0.023265
  8 P  1.58700000E+01 -0.068520
  8 P  6.20800000E+00 -0.123896
  8 P  2.48300000E+00 -0.096950
  8 P  3.22900000E-01  0.569394

  9 P  8.68800000E-01  1.000000

 10 P  1.09800000E-01  1.000000

 11 P  3.51000000E-02  1.000000

 12 D  2.69000000E-01  1.000000

 13 D  8.19000000E-01  1.000000

 14 D  1.01000000E-01  1.000000

 15 F  5.57000000E-01  1.000000

 16 F  2.18000000E-01  1.000000

  O (Oxygen)
  ----------
            Exponent  Coefficients 
       -------------- ---------------------------------------------------------
  1 S  1.53300000E+04  0.000508
  1 S  2.29900000E+03  0.003929
  1 S  5.22400000E+02  0.020243
  1 S  1.47300000E+02  0.079181
  1 S  4.75500000E+01  0.230687
  1 S  1.67600000E+01  0.433118
  1 S  6.20700000E+00  0.350260
  1 S  6.88200000E-01 -0.008154

  2 S  1.53300000E+04 -0.000115
  2 S  2.29900000E+03 -0.000895
  2 S  5.22400000E+02 -0.004636
  2 S  1.47300000E+02 -0.018724
  2 S  4.75500000E+01 -0.058463
  2 S  1.67600000E+01 -0.136463
  2 S  6.20700000E+00 -0.175740
  2 S  6.88200000E-01  0.603418

  3 S  1.75200000E+00  1.000000

  4 S  2.38400000E-01  1.000000

  5 S  7.37600000E-02  1.000000

  6 P  3.44600000E+01  0.015928
  6 P  7.74900000E+00  0.099740
  6 P  2.28000000E+00  0.310492

  7 P  7.15600000E-01  1.000000

  8 P  2.14000000E-01  1.000000

  9 P  5.97400000E-02  1.000000

 10 D  2.31400000E+00  1.000000

 11 D  6.45000000E-01  1.000000

 12 D  2.14000000E-01  1.000000

 13 F  1.42800000E+00  1.000000

 14 F  5.00000000E-01  1.000000



 Summary of "ao basis" -> "ao basis" (cartesian)
 ------------------------------------------------------------------------------
       Tag                 Description            Shells   Functions and Types
 ---------------- ------------------------------  ------  ---------------------
 S                        aug-cc-pVTZ               16       59   6s5p3d2f
 O                        aug-cc-pVTZ               14       55   5s4p3d2f




 Summary of "ao basis" -> "ao basis" (cartesian)
 ------------------------------------------------------------------------------
       Tag                 Description            Shells   Functions and Types
 ---------------- ------------------------------  ------  ---------------------
 S                        aug-cc-pVTZ               16       59   6s5p3d2f
 O                        aug-cc-pVTZ               14       55   5s4p3d2f


  Caching 1-el integrals 

            General Information
            -------------------
          SCF calculation type: DFT
          Wavefunction type:  closed shell.
          No. of atoms     :     5
          No. of electrons :    48
           Alpha electrons :    24
            Beta electrons :    24
          Charge           :     0
          Spin multiplicity:     1
          Use of symmetry is: off; symmetry adaption is: off
          Maximum number of iterations: 100
          AO basis - number of functions:   279
                     number of shells:    72
          Convergence on energy requested:  1.00D-06
          Convergence on density requested:  1.00D-05
          Convergence on gradient requested:  5.00D-04

              XC Information
              --------------
          PerdewBurkeErnzerhof Exchange Functional  1.000          
            Perdew 1991 LDA Correlation Functional  1.000 local    
           PerdewBurkeErnz. Correlation Functional  1.000 non-local

             Grid Information
             ----------------
          Grid used for XC integration:  medium    
          Radial quadrature: Mura-Knowles        
          Angular quadrature: Lebedev. 
          Tag              B.-S. Rad. Rad. Pts. Rad. Cut. Ang. Pts.
          ---              ---------- --------- --------- ---------
          S                   1.00       88          10.0       590
          O                   0.60       49          11.0       434
          Grid pruning is: on 
          Number of quadrature shells:   284
          Spatial weights used:  Erf1

          Convergence Information
          -----------------------
          Convergence aids based upon iterative change in 
          total energy or number of iterations. 
          Levelshifting, if invoked, occurs when the 
          HOMO/LUMO gap drops below (HL_TOL):  1.00D-02
          DIIS, if invoked, will attempt to extrapolate 
          using up to (NFOCK): 10 stored Fock matrices.

                    Damping(40%)  Levelshifting(0.0)       DIIS
                  --------------- ------------------- ---------------
          dE  on:    start            0.00D+00            start   
          dE off:  100 iters          0.00D+00          100 iters 


      Screening Tolerance Information
      -------------------------------
          Density screening/tol_rho:  1.00D-10
          AO Gaussian exp screening on grid/accAOfunc:  14
          CD Gaussian exp screening on grid/accCDfunc:  20
          XC Gaussian exp screening on grid/accXCfunc:  20
          Schwarz screening/accCoul:  1.00D-08


 Forcing the number of linearly dependent vectors to be  0

      Superposition of Atomic Density Guess
      -------------------------------------

 Sum of atomic energies:        -696.61213433
   Time after variat. SCF:      0.5
   Time prior to 1st pass:      0.5

 Grid_pts file          = /jet/home/hmt47/nwchem_scratch//dft.gridpts.00
 Record size in doubles =  12289        No. of grid_pts per rec  =   3070
 Max. records in memory =      5        Max. recs in file   =  67550051


           Memory utilization after 1st SCF pass: 
           Heap Space remaining (MW):       33.36            33363912
          Stack Space remaining (MW):       67.11            67107364

   convergence    iter        energy       DeltaE   RMS-Dens  Diis-err    time
 ---------------- ----- ----------------- --------- --------- ---------  ------
 d=40,ls=0.0,diis     1   -699.6372591605 -9.58D+02  1.27D-02  4.97D+01     1.2
 d=40,ls=0.0,diis     2   -698.9383799837  6.99D-01  1.07D-02  8.68D+00     3.6
 d=40,ls=0.0,diis     3   -697.6642418721  1.27D+00  5.78D-03  6.97D+00     6.1
 d=40,ls=0.0,diis     4   -698.4123111517 -7.48D-01  4.39D-03  1.37D+00     8.6
 d=40,ls=0.0,diis     5   -698.4264072306 -1.41D-02  3.90D-03  9.15D-01    11.0
 d=40,ls=0.0,diis     6   -698.4839419504 -5.75D-02  3.36D-03  6.32D-01    13.7
  Resetting Diis
 d=40,ls=0.0,diis     7   -698.5193881042 -3.54D-02  3.18D-03  4.27D-01    16.2
 d=40,ls=0.0,diis     8   -698.5181973742  1.19D-03  5.52D-03  4.59D-01    18.8
 d=40,ls=0.0,diis     9   -698.0671415741  4.51D-01  3.65D-03  3.50D+00    21.4
 d=40,ls=0.0,diis    10   -698.3623534825 -2.95D-01  1.89D-03  1.56D+00    24.0
 d=40,ls=0.0,diis    11   -698.4131042026 -5.08D-02  2.57D-03  1.18D+00    26.5
 d=40,ls=0.0,diis    12   -698.4444466029 -3.13D-02  3.85D-03  9.68D-01    29.1
 d=40,ls=0.0,diis    13   -698.4985239032 -5.41D-02  2.49D-03  5.93D-01    31.7
 d=40,ls=0.0,diis    14   -698.5040175532 -5.49D-03  4.24D-03  5.34D-01    34.4
 d=40,ls=0.0,diis    15   -698.5691432374 -6.51D-02  3.96D-03  1.17D-01    36.7
 d=40,ls=0.0,diis    16   -698.5607672548  8.38D-03  2.91D-03  1.79D-01    39.2
 d=40,ls=0.0,diis    17   -698.5549657938  5.80D-03  3.32D-03  2.06D-01    41.9
 d=40,ls=0.0,diis    18   -698.5666133878 -1.16D-02  3.91D-03  1.33D-01    44.5
 d=40,ls=0.0,diis    19   -698.5739097311 -7.30D-03  3.77D-03  9.26D-02    47.0
 d=40,ls=0.0,diis    20   -698.5690942586  4.82D-03  3.79D-03  1.23D-01    49.6
 d=40,ls=0.0,diis    21   -698.5678951958  1.20D-03  3.63D-03  1.27D-01    52.0
 d=40,ls=0.0,diis    22   -698.5748098257 -6.91D-03  2.45D-03  8.76D-02    54.7
 d=40,ls=0.0,diis    23   -698.5852542343 -1.04D-02  3.90D-03  1.55D-02    57.2
 d=40,ls=0.0,diis    24   -698.5870941931 -1.84D-03  3.98D-03  1.24D-02    59.8
 d=40,ls=0.0,diis    25   -698.5765989119  1.05D-02  2.90D-03  7.78D-02    62.3
 d=40,ls=0.0,diis    26   -698.5777273077 -1.13D-03  2.44D-03  6.67D-02    64.9
 d=40,ls=0.0,diis    27   -698.5804762686 -2.75D-03  3.24D-03  4.37D-02    67.5
 d=40,ls=0.0,diis    28   -698.5486553571  3.18D-02  1.21D-03  2.33D-01    70.1
 d=40,ls=0.0,diis    29   -698.5173567195  3.13D-02  2.39D-03  4.14D-01    72.5
 d=40,ls=0.0,diis    30   -698.5288696453 -1.15D-02  1.21D-03  3.66D-01    75.0
 d=40,ls=0.0,diis    31   -698.5213069680  7.56D-03  1.47D-03  4.23D-01    77.6
 d=40,ls=0.0,diis    32   -698.5123534949  8.95D-03  4.15D-03  4.71D-01    80.1
 d=40,ls=0.0,diis    33   -698.5489653394 -3.66D-02  2.94D-03  2.44D-01    82.7
 d=40,ls=0.0,diis    34   -698.5779850961 -2.90D-02  4.00D-03  6.52D-02    85.2
 d=40,ls=0.0,diis    35   -698.5797602353 -1.78D-03  3.20D-03  5.98D-02    87.8
 d=40,ls=0.0,diis    36   -698.5720379805  7.72D-03  2.45D-03  1.01D-01    90.7
 d=40,ls=0.0,diis    37   -698.5684856231  3.55D-03  4.21D-03  1.22D-01    93.1
 d=40,ls=0.0,diis    38   -698.5757763399 -7.29D-03  2.09D-03  8.91D-02    95.5
 d=40,ls=0.0,diis    39   -698.5740181925  1.76D-03  1.07D-03  8.82D-02    98.1
 d=40,ls=0.0,diis    40   -698.5734356643  5.83D-04  2.85D-03  8.45D-02   100.5
 d=40,ls=0.0,diis    41   -698.5744735099 -1.04D-03  3.66D-03  8.11D-02   103.1
 d=40,ls=0.0,diis    42   -698.5695607299  4.91D-03  2.04D-03  1.16D-01   105.6
 d=40,ls=0.0,diis    43   -698.5805084408 -1.09D-02  4.33D-03  4.19D-02   108.2
 d=40,ls=0.0,diis    44   -698.5787480745  1.76D-03  3.26D-03  6.62D-02   110.8
 d=40,ls=0.0,diis    45   -698.5692251130  9.52D-03  3.44D-03  1.17D-01   113.4
 d=40,ls=0.0,diis    46   -698.5538642527  1.54D-02  3.67D-03  2.06D-01   116.7
 d=40,ls=0.0,diis    47   -698.5578785115 -4.01D-03  2.08D-03  1.85D-01   119.2
 d=40,ls=0.0,diis    48   -698.5327453609  2.51D-02  2.03D-03  3.23D-01   121.8
 d=40,ls=0.0,diis    49   -698.5305671153  2.18D-03  1.16D-03  3.53D-01   124.3
 d=40,ls=0.0,diis    50   -698.5209711438  9.60D-03  1.64D-03  4.24D-01   126.7
 d=40,ls=0.0,diis    51   -698.5353617083 -1.44D-02  2.42D-03  3.34D-01   129.3
 d=40,ls=0.0,diis    52   -698.5731025461 -3.77D-02  1.21D-03  8.77D-02   131.8
 d=40,ls=0.0,diis    53   -698.5778496823 -4.75D-03  4.58D-03  5.11D-02   134.2
 d=40,ls=0.0,diis    54   -698.5859958755 -8.15D-03  3.52D-03  2.22D-02   136.8
 d=40,ls=0.0,diis    55   -698.5561494946  2.98D-02  3.62D-03  2.03D-01   139.3
 d=40,ls=0.0,diis    56   -698.5813841010 -2.52D-02  2.88D-03  4.95D-02   141.6
 d=40,ls=0.0,diis    57   -698.5535134198  2.79D-02  3.43D-03  2.11D-01   144.1
 d=40,ls=0.0,diis    58   -698.5719212711 -1.84D-02  3.76D-03  1.02D-01   146.6
 d=40,ls=0.0,diis    59   -698.5832468229 -1.13D-02  3.53D-03  3.61D-02   149.0
 d=40,ls=0.0,diis    60   -698.5773291985  5.92D-03  3.93D-03  7.05D-02   151.4
 d=40,ls=0.0,diis    61   -698.5818790654 -4.55D-03  3.60D-03  4.74D-02   154.1
 d=40,ls=0.0,diis    62   -698.5758970531  5.98D-03  3.67D-03  8.09D-02   156.7
 d=40,ls=0.0,diis    63   -698.5671646736  8.73D-03  2.29D-03  1.33D-01   159.3
 d=40,ls=0.0,diis    64   -698.5679296247 -7.65D-04  3.05D-03  1.25D-01   161.8
 d=40,ls=0.0,diis    65   -698.5463259996  2.16D-02  2.60D-03  2.50D-01   164.3
 d=40,ls=0.0,diis    66   -698.5606307193 -1.43D-02  3.65D-03  1.70D-01   166.8
 d=40,ls=0.0,diis    67   -698.5618115283 -1.18D-03  1.79D-03  1.63D-01   169.3
 d=40,ls=0.0,diis    68   -698.5575038235  4.31D-03  4.25D-03  1.89D-01   171.9
 d=40,ls=0.0,diis    69   -698.5608676075 -3.36D-03  2.85D-03  1.70D-01   174.3
 d=40,ls=0.0,diis    70   -698.5552958844  5.57D-03  3.78D-03  1.99D-01   176.9
 d=40,ls=0.0,diis    71   -698.5838231530 -2.85D-02  3.80D-03  3.32D-02   179.4
 d=40,ls=0.0,diis    72   -698.5749031827  8.92D-03  3.79D-03  8.92D-02   182.1
 d=40,ls=0.0,diis    73   -698.5677597801  7.14D-03  2.89D-03  1.32D-01   184.6
 d=40,ls=0.0,diis    74   -698.5463060932  2.15D-02  3.76D-03  2.50D-01   187.3
 d=40,ls=0.0,diis    75   -698.5826342264 -3.63D-02  1.72D-03  4.08D-02   189.9
 d=40,ls=0.0,diis    76   -698.5673250071  1.53D-02  1.05D-03  1.26D-01   192.4
 d=40,ls=0.0,diis    77   -698.5464025254  2.09D-02  3.16D-03  2.56D-01   194.9
 d=40,ls=0.0,diis    78   -698.5278565335  1.85D-02  3.97D-03  3.51D-01   197.5
 d=40,ls=0.0,diis    79   -698.5795495360 -5.17D-02  3.98D-03  6.04D-02   200.1
 d=40,ls=0.0,diis    80   -698.5675329555  1.20D-02  3.36D-03  1.30D-01   202.6
 d=40,ls=0.0,diis    81   -698.5833471306 -1.58D-02  3.80D-03  3.53D-02   205.2
 d=40,ls=0.0,diis    82   -698.5831811794  1.66D-04  3.19D-03  3.90D-02   207.8
 d=40,ls=0.0,diis    83   -698.5597773109  2.34D-02  1.06D-03  1.74D-01   210.3
 d=40,ls=0.0,diis    84   -698.5308217470  2.90D-02  2.21D-03  3.52D-01   212.9
 d=40,ls=0.0,diis    85   -698.5292142898  1.61D-03  1.53D-03  3.63D-01   215.3
 d=40,ls=0.0,diis    86   -698.5122198423  1.70D-02  2.69D-03  4.53D-01   217.8
 d=40,ls=0.0,diis    87   -698.5302067654 -1.80D-02  7.45D-04  3.52D-01   220.3
 d=40,ls=0.0,diis    88   -698.5270051723  3.20D-03  8.29D-04  3.80D-01   222.7
 d=40,ls=0.0,diis    89   -698.5144285832  1.26D-02  3.38D-03  4.52D-01   225.3
 d=40,ls=0.0,diis    90   -698.5353699472 -2.09D-02  4.00D-03  3.15D-01   227.9
 d=40,ls=0.0,diis    91   -698.5549042569 -1.95D-02  3.70D-03  2.09D-01   230.4
 d=40,ls=0.0,diis    92   -698.5791201829 -2.42D-02  3.36D-03  6.59D-02   233.1
 d=40,ls=0.0,diis    93   -698.5534785466  2.56D-02  3.83D-03  2.13D-01   235.7
 d=40,ls=0.0,diis    94   -698.5672617674 -1.38D-02  3.12D-03  1.41D-01   238.4
 d=40,ls=0.0,diis    95   -698.5424172848  2.48D-02  1.38D-03  2.85D-01   240.7
 d=40,ls=0.0,diis    96   -698.5228888136  1.95D-02  1.33D-03  4.05D-01   243.2
 d=40,ls=0.0,diis    97   -698.5182178056  4.67D-03  2.32D-03  4.37D-01   245.7
 d=40,ls=0.0,diis    98   -698.5132018536  5.02D-03  3.41D-03  4.56D-01   248.2
 d=40,ls=0.0,diis    99   -698.5749381065 -6.17D-02  3.57D-03  8.33D-02   250.8
 d=40,ls=0.0,diis   100   -698.5672200159  7.72D-03  3.87D-03  1.31D-01   253.1

      Calculation failed to converge
      ------------------------------



         Total DFT energy =     -698.567220015871
      One electron energy =    -1473.992282414877
           Coulomb energy =      576.736642557273
    Exchange-Corr. energy =      -59.386442307032
 Nuclear repulsion energy =      258.074862148765

 Numeric. integr. density =       48.000001961625

     Total iterative time =    252.6s



                       DFT Final Molecular Orbital Analysis
                       ------------------------------------

 Vector    1  Occ=2.000000D+00  E=-8.836810D+01
              MO Center= -3.3D-04,  4.1D-04, -2.4D-02, r^2= 3.6D-03
   Bfn.  Coefficient  Atom+Function         Bfn.  Coefficient  Atom+Function  
  ----- ------------  ---------------      ----- ------------  ---------------
     1      1.006228  1 S  s                  5     -0.204129  1 S  s          
     3      0.054886  1 S  s                 63      0.044784  2 O  s          
   118      0.044791  3 O  s                173      0.044786  4 O  s          
   228      0.044787  5 O  s                  2      0.040975  1 S  s          
   183     -0.033854  4 O  pz                72     -0.031890  2 O  py         

 Vector    2  Occ=2.000000D+00  E=-1.887720D+01
              MO Center= -1.3D-03,  4.3D-03,  1.5D+00, r^2= 1.5D-02
   Bfn.  Coefficient  Atom+Function         Bfn.  Coefficient  Atom+Function  
  ----- ------------  ---------------      ----- ------------  ---------------
   170      0.977945  4 O  s                173     -0.064467  4 O  s          
   172      0.062261  4 O  s                  5      0.051385  1 S  s          

 Vector    3  Occ=2.000000D+00  E=-1.887166D+01
              MO Center= -9.1D-04,  1.4D+00, -5.4D-01, r^2= 1.5D-02
   Bfn.  Coefficient  Atom+Function         Bfn.  Coefficient  Atom+Function  
  ----- ------------  ---------------      ----- ------------  ---------------
    60      0.977945  2 O  s                 63     -0.064495  2 O  s          
    62      0.062276  2 O  s                  5      0.051444  1 S  s          

 Vector    4  Occ=2.000000D+00  E=-1.886914D+01
              MO Center= -1.3D+00, -7.2D-01, -5.3D-01, r^2= 1.5D-02
   Bfn.  Coefficient  Atom+Function         Bfn.  Coefficient  Atom+Function  
  ----- ------------  ---------------      ----- ------------  ---------------
   225      0.977941  5 O  s                228     -0.064474  5 O  s          
   227      0.062289  5 O  s                  5      0.051365  1 S  s          

 Vector    5  Occ=2.000000D+00  E=-1.886730D+01
              MO Center=  1.3D+00, -7.2D-01, -5.3D-01, r^2= 1.5D-02
   Bfn.  Coefficient  Atom+Function         Bfn.  Coefficient  Atom+Function  
  ----- ------------  ---------------      ----- ------------  ---------------
   115      0.977943  3 O  s                118     -0.064450  3 O  s          
   117      0.062284  3 O  s                  5      0.051269  1 S  s          

 Vector    6  Occ=2.000000D+00  E=-7.946595D+00
              MO Center= -3.4D-04,  4.3D-04, -2.3D-02, r^2= 7.7D-02
   Bfn.  Coefficient  Atom+Function         Bfn.  Coefficient  Atom+Function  
  ----- ------------  ---------------      ----- ------------  ---------------
     2      0.889892  1 S  s                  5      0.162052  1 S  s          
     4      0.118461  1 S  s                  3     -0.060857  1 S  s          
    63     -0.048938  2 O  s                118     -0.048995  3 O  s          
   173     -0.048896  4 O  s                228     -0.048963  5 O  s          
   183      0.035805  4 O  pz                72      0.033739  2 O  py         

 Vector    7  Occ=2.000000D+00  E=-5.968203D+00
              MO Center= -3.5D-04,  4.0D-04, -2.4D-02, r^2= 6.9D-02
   Bfn.  Coefficient  Atom+Function         Bfn.  Coefficient  Atom+Function  
  ----- ------------  ---------------      ----- ------------  ---------------
     9      0.985790  1 S  pz                 7      0.353022  1 S  px         
     8      0.296449  1 S  py                12      0.237805  1 S  pz         
    10      0.085185  1 S  px                47     -0.084557  1 S  fyyz       
    42     -0.081357  1 S  fxxz              49     -0.077796  1 S  fzzz       
   173     -0.074861  4 O  s                 11      0.071519  1 S  py         

 Vector    8  Occ=2.000000D+00  E=-5.968149D+00
              MO Center= -3.4D-04,  4.2D-04, -2.4D-02, r^2= 6.9D-02
   Bfn.  Coefficient  Atom+Function         Bfn.  Coefficient  Atom+Function  
  ----- ------------  ---------------      ----- ------------  ---------------
     8      0.891601  1 S  py                 7      0.452143  1 S  px         
     9     -0.430024  1 S  pz                11      0.215089  1 S  py         
    10      0.109101  1 S  px                12     -0.103732  1 S  pz         
    48     -0.075012  1 S  fyzz              63     -0.074635  2 O  s          
    41     -0.073912  1 S  fxxy              46     -0.070774  1 S  fyyy       

 Vector    9  Occ=2.000000D+00  E=-5.968089D+00
              MO Center= -3.0D-04,  3.9D-04, -2.4D-02, r^2= 6.9D-02
   Bfn.  Coefficient  Atom+Function         Bfn.  Coefficient  Atom+Function  
  ----- ------------  ---------------      ----- ------------  ---------------
     7      0.924847  1 S  px                 8     -0.549065  1 S  py         
    10      0.223187  1 S  px                 9     -0.166059  1 S  pz         
    11     -0.132470  1 S  py               118     -0.081175  3 O  s          
    45     -0.077893  1 S  fxzz              40     -0.074267  1 S  fxxx       
    43     -0.074251  1 S  fxyy              23     -0.053694  1 S  dxy        

 Vector   10  Occ=2.000000D+00  E=-1.131881D+00
              MO Center= -4.0D-03,  7.0D-03, -7.6D-03, r^2= 1.5D+00
   Bfn.  Coefficient  Atom+Function         Bfn.  Coefficient  Atom+Function  
  ----- ------------  ---------------      ----- ------------  ---------------
     3      0.387597  1 S  s                  5     -0.316697  1 S  s          
   173      0.218256  4 O  s                 63      0.215180  2 O  s          
   228      0.213978  5 O  s                118      0.212745  3 O  s          
   171      0.184380  4 O  s                 61      0.179519  2 O  s          
   226      0.177567  5 O  s                116      0.175573  3 O  s          

 Vector   11  Occ=2.000000D+00  E=-9.896587D-01
              MO Center= -3.6D-02,  1.3D-01,  7.4D-01, r^2= 1.5D+00
   Bfn.  Coefficient  Atom+Function         Bfn.  Coefficient  Atom+Function  
  ----- ------------  ---------------      ----- ------------  ---------------
   171      0.411542  4 O  s                173      0.274798  4 O  s          
    61     -0.197729  2 O  s                 15      0.146160  1 S  pz         
    63     -0.133377  2 O  s                226     -0.128222  5 O  s          
   172      0.114558  4 O  s                  9     -0.107888  1 S  pz         
   116     -0.090861  3 O  s                228     -0.086875  5 O  s          

 Vector   12  Occ=2.000000D+00  E=-9.870152D-01
              MO Center= -3.6D-01,  3.5D-01, -4.1D-01, r^2= 1.7D+00
   Bfn.  Coefficient  Atom+Function         Bfn.  Coefficient  Atom+Function  
  ----- ------------  ---------------      ----- ------------  ---------------
    61      0.353171  2 O  s                226     -0.308726  5 O  s          
    63      0.236656  2 O  s                228     -0.207676  5 O  s          
    14      0.140138  1 S  py                 8     -0.103369  1 S  py         
    62      0.098234  2 O  s                116     -0.098690  3 O  s          
   227     -0.085847  5 O  s                 41      0.073498  1 S  fxxy       

 Vector   13  Occ=2.000000D+00  E=-9.854655D-01
              MO Center=  4.0D-01, -4.9D-01, -4.1D-01, r^2= 1.5D+00
   Bfn.  Coefficient  Atom+Function         Bfn.  Coefficient  Atom+Function  
  ----- ------------  ---------------      ----- ------------  ---------------
   116      0.396242  3 O  s                118      0.266449  3 O  s          
   226     -0.250925  5 O  s                228     -0.167878  5 O  s          
    13      0.141386  1 S  px               117      0.110189  3 O  s          
     7     -0.104156  1 S  px                61     -0.102785  2 O  s          
    40      0.071703  1 S  fxxx              43      0.071715  1 S  fxyy       

 Vector   14  Occ=2.000000D+00  E=-6.136644D-01
              MO Center= -5.3D-03,  8.9D-03, -3.0D-03, r^2= 3.0D+00
   Bfn.  Coefficient  Atom+Function         Bfn.  Coefficient  Atom+Function  
  ----- ------------  ---------------      ----- ------------  ---------------
     3      0.415512  1 S  s                171     -0.200738  4 O  s          
    61     -0.198887  2 O  s                116     -0.197308  3 O  s          
   226     -0.197989  5 O  s                173     -0.180452  4 O  s          
    63     -0.178340  2 O  s                228     -0.177457  5 O  s          
   118     -0.176529  3 O  s                  6      0.152920  1 S  s          

 Vector   15  Occ=2.000000D+00  E=-5.122504D-01
              MO Center= -4.8D-02,  1.6D-02,  5.2D-01, r^2= 2.4D+00
   Bfn.  Coefficient  Atom+Function         Bfn.  Coefficient  Atom+Function  
  ----- ------------  ---------------      ----- ------------  ---------------
    15      0.235744  1 S  pz               177     -0.207531  4 O  pz         
   180     -0.206846  4 O  pz               171     -0.195175  4 O  s          
   173     -0.188594  4 O  s                  9     -0.142371  1 S  pz         
    66      0.100596  2 O  py                69      0.100306  2 O  py         
   183     -0.098377  4 O  pz                42      0.096551  1 S  fxxz       

 Vector   16  Occ=2.000000D+00  E=-5.109990D-01
              MO Center= -2.7D-01,  2.8D-01, -2.9D-01, r^2= 2.5D+00
   Bfn.  Coefficient  Atom+Function         Bfn.  Coefficient  Atom+Function  
  ----- ------------  ---------------      ----- ------------  ---------------
    14      0.218828  1 S  py                61     -0.173588  2 O  s          
    63     -0.166937  2 O  s                 66     -0.160525  2 O  py         
    69     -0.160088  2 O  py               226      0.147738  5 O  s          
   230     -0.145791  5 O  px               233     -0.145510  5 O  px         
   228      0.142198  5 O  s                  8     -0.132164  1 S  py         

 Vector   17  Occ=2.000000D+00  E=-5.099036D-01
              MO Center=  3.2D-01, -2.9D-01, -2.8D-01, r^2= 2.5D+00
   Bfn.  Coefficient  Atom+Function         Bfn.  Coefficient  Atom+Function  
  ----- ------------  ---------------      ----- ------------  ---------------
    13      0.218039  1 S  px               116     -0.191667  3 O  s          
   118     -0.184070  3 O  s                120     -0.147169  3 O  px         
   123     -0.146662  3 O  px                 7     -0.131719  1 S  px         
   231     -0.113876  5 O  py               234     -0.113955  5 O  py         
   226      0.107911  5 O  s                228      0.103760  5 O  s          

 Vector   18  Occ=2.000000D+00  E=-3.993472D-01
              MO Center= -5.0D-02,  7.1D-02,  1.2D-01, r^2= 2.7D+00
   Bfn.  Coefficient  Atom+Function         Bfn.  Coefficient  Atom+Function  
  ----- ------------  ---------------      ----- ------------  ---------------
   179      0.197335  4 O  py               176      0.195250  4 O  py         
    70      0.161591  2 O  pz                67      0.159479  2 O  pz         
    32      0.135463  1 S  dyz               26      0.132522  1 S  dyz        
   124     -0.130232  3 O  py               121     -0.128593  3 O  py         
   235     -0.124872  5 O  pz               232     -0.123127  5 O  pz         

 Vector   19  Occ=2.000000D+00  E=-3.976480D-01
              MO Center= -3.3D-02,  7.5D-05,  6.8D-02, r^2= 2.7D+00
   Bfn.  Coefficient  Atom+Function         Bfn.  Coefficient  Atom+Function  
  ----- ------------  ---------------      ----- ------------  ---------------
   178      0.191836  4 O  px               175      0.189863  4 O  px         
    68     -0.165079  2 O  px                65     -0.163281  2 O  px         
   125      0.155726  3 O  pz               122      0.153801  3 O  pz         
   234      0.139477  5 O  py               231      0.138157  5 O  py         
    30      0.131492  1 S  dxz               24      0.128615  1 S  dxz        

 Vector   20  Occ=2.000000D+00  E=-3.856997D-01
              MO Center=  3.6D-03, -9.6D-02, -7.8D-02, r^2= 2.9D+00
   Bfn.  Coefficient  Atom+Function         Bfn.  Coefficient  Atom+Function  
  ----- ------------  ---------------      ----- ------------  ---------------
   177      0.177328  4 O  pz               232      0.171432  5 O  pz         
   235      0.170330  5 O  pz               122      0.168941  3 O  pz         
   180      0.169737  4 O  pz               125      0.168276  3 O  pz         
    70      0.145108  2 O  pz                67      0.143984  2 O  pz         
   231      0.104448  5 O  py                73      0.103473  2 O  pz         

 Vector   21  Occ=2.000000D+00  E=-3.853491D-01
              MO Center=  1.1D-01,  4.8D-02, -1.1D-01, r^2= 2.9D+00
   Bfn.  Coefficient  Atom+Function         Bfn.  Coefficient  Atom+Function  
  ----- ------------  ---------------      ----- ------------  ---------------
   124      0.132156  3 O  py               121      0.129908  3 O  py         
    65      0.129018  2 O  px                68      0.129655  2 O  px         
    66      0.126213  2 O  py               120      0.125163  3 O  px         
   231      0.124089  5 O  py               123      0.122988  3 O  px         
   234      0.121546  5 O  py                69      0.119660  2 O  py         

 Vector   22  Occ=2.000000D+00  E=-3.846784D-01
              MO Center= -4.6D-02,  1.3D-02, -4.9D-02, r^2= 2.9D+00
   Bfn.  Coefficient  Atom+Function         Bfn.  Coefficient  Atom+Function  
  ----- ------------  ---------------      ----- ------------  ---------------
   120      0.152635  3 O  px               230      0.152740  5 O  px         
   233      0.150061  5 O  px                65      0.147367  2 O  px         
    68      0.147979  2 O  px               123      0.146496  3 O  px         
   175      0.139563  4 O  px               178      0.140139  4 O  px         
    23      0.126671  1 S  dxy               29      0.122514  1 S  dxy        

 Vector   23  Occ=2.000000D+00  E=-3.290614D-01
              MO Center= -2.9D-01,  1.8D-01,  1.7D-01, r^2= 2.7D+00
   Bfn.  Coefficient  Atom+Function         Bfn.  Coefficient  Atom+Function  
  ----- ------------  ---------------      ----- ------------  ---------------
   179     -0.223098  4 O  py               176     -0.217673  4 O  py         
    70      0.215524  2 O  pz                67      0.210346  2 O  pz         
   235     -0.210285  5 O  pz               232     -0.205381  5 O  pz         
   182     -0.163099  4 O  py                73      0.158220  2 O  pz         
   238     -0.154000  5 O  pz               178     -0.116155  4 O  px         

 Vector   24  Occ=2.000000D+00  E=-3.270130D-01
              MO Center=  2.5D-01, -3.0D-01,  1.5D-01, r^2= 2.7D+00
   Bfn.  Coefficient  Atom+Function         Bfn.  Coefficient  Atom+Function  
  ----- ------------  ---------------      ----- ------------  ---------------
   125      0.244196  3 O  pz               122      0.238689  3 O  pz         
   178     -0.217065  4 O  px               175     -0.212010  4 O  px         
   128      0.178718  3 O  pz               181     -0.159380  4 O  px         
   235     -0.125382  5 O  pz               232     -0.122326  5 O  pz         
   179      0.115920  4 O  py               176      0.113237  4 O  py         

 Vector   25  Occ=0.000000D+00  E=-3.255533D-01
              MO Center=  5.4D-02,  6.8D-02, -4.9D-01, r^2= 2.6D+00
   Bfn.  Coefficient  Atom+Function         Bfn.  Coefficient  Atom+Function  
  ----- ------------  ---------------      ----- ------------  ---------------
    68      0.253448  2 O  px                65      0.247667  2 O  px         
   124     -0.214779  3 O  py               121     -0.209848  3 O  py         
   234      0.200236  5 O  py               231      0.195643  5 O  py         
    71      0.186097  2 O  px               127     -0.157214  3 O  py         
   237      0.146626  5 O  py               123     -0.101474  3 O  px         

 Vector   26  Occ=0.000000D+00  E=-4.773775D-02
              MO Center= -2.9D-03,  8.4D-03, -8.6D-03, r^2= 5.3D+00
   Bfn.  Coefficient  Atom+Function         Bfn.  Coefficient  Atom+Function  
  ----- ------------  ---------------      ----- ------------  ---------------
     6      3.018495  1 S  s                  5      1.321498  1 S  s          
    64     -0.905784  2 O  s                119     -0.904240  3 O  s          
   174     -0.907498  4 O  s                229     -0.905854  5 O  s          
     3      0.423931  1 S  s                173     -0.320395  4 O  s          
    63     -0.317149  2 O  s                228     -0.316922  5 O  s          

 Vector   27  Occ=0.000000D+00  E= 9.626265D-03
              MO Center= -7.1D-02, -4.0D-02, -4.2D-02, r^2= 5.2D+00
   Bfn.  Coefficient  Atom+Function         Bfn.  Coefficient  Atom+Function  
  ----- ------------  ---------------      ----- ------------  ---------------
    20      0.700477  1 S  py               229      0.684894  5 O  s          
    21      0.600528  1 S  pz                17      0.518683  1 S  py         
    19      0.484824  1 S  px                18      0.449302  1 S  pz         
    16      0.358085  1 S  px               174     -0.351989  4 O  s          
    64     -0.250835  2 O  s                 76     -0.226831  2 O  pz         

 Vector   28  Occ=0.000000D+00  E= 9.989223D-03
              MO Center=  4.6D-02, -9.7D-03, -1.9D-02, r^2= 5.3D+00
   Bfn.  Coefficient  Atom+Function         Bfn.  Coefficient  Atom+Function  
  ----- ------------  ---------------      ----- ------------  ---------------
    21     -0.759160  1 S  pz                19      0.714380  1 S  px         
    18     -0.569308  1 S  pz               119     -0.565894  3 O  s          
    16      0.525460  1 S  px               174      0.473647  4 O  s          
    64     -0.327160  2 O  s                241      0.260855  5 O  pz         
   229      0.224542  5 O  s                130     -0.212060  3 O  py         

 Vector   29  Occ=0.000000D+00  E= 1.030520D-02
              MO Center=  3.0D-02,  3.6D-02, -4.4D-02, r^2= 5.3D+00
   Bfn.  Coefficient  Atom+Function         Bfn.  Coefficient  Atom+Function  
  ----- ------------  ---------------      ----- ------------  ---------------
    20      0.771364  1 S  py                19     -0.605364  1 S  px         
    64     -0.592149  2 O  s                 17      0.573122  1 S  py         
   119      0.495920  3 O  s                 16     -0.445668  1 S  px         
    21     -0.411277  1 S  pz                18     -0.310995  1 S  pz         
   174      0.288287  4 O  s                240     -0.264218  5 O  py         

 Vector   30  Occ=0.000000D+00  E= 2.169331D-02
              MO Center= -3.5D-02,  8.0D-02,  1.4D-01, r^2= 8.7D+00
   Bfn.  Coefficient  Atom+Function         Bfn.  Coefficient  Atom+Function  
  ----- ------------  ---------------      ----- ------------  ---------------
     6      7.702670  1 S  s                174     -2.776134  4 O  s          
    64     -2.678843  2 O  s                229     -2.625364  5 O  s          
   119     -2.587245  3 O  s                186      0.602938  4 O  pz         
    75      0.548224  2 O  py               239     -0.466207  5 O  px         
   129      0.463324  3 O  px                 5     -0.458881  1 S  s          

 Vector   31  Occ=0.000000D+00  E= 3.247008D-02
              MO Center=  1.2D-01,  5.2D-02, -3.4D-01, r^2= 1.3D+01
   Bfn.  Coefficient  Atom+Function         Bfn.  Coefficient  Atom+Function  
  ----- ------------  ---------------      ----- ------------  ---------------
   229      1.708578  5 O  s                 21      1.697749  1 S  pz         
   174     -1.695812  4 O  s                 20      0.980282  1 S  py         
    18      0.966730  1 S  pz               119      0.742247  3 O  s          
    17      0.551689  1 S  py                19      0.552695  1 S  px         
     6     -0.363570  1 S  s                 34     -0.359404  1 S  dxx        

 Vector   32  Occ=0.000000D+00  E= 3.257669D-02
              MO Center=  9.6D-02, -1.1D-01, -1.6D-02, r^2= 1.3D+01
   Bfn.  Coefficient  Atom+Function         Bfn.  Coefficient  Atom+Function  
  ----- ------------  ---------------      ----- ------------  ---------------
    64      1.719027  2 O  s                 20     -1.264168  1 S  py         
   229     -1.209589  5 O  s                 19     -1.159999  1 S  px         
   174     -1.126668  4 O  s                 21      1.096070  1 S  pz         
   119      0.811682  3 O  s                 17     -0.714829  1 S  py         
    16     -0.648936  1 S  px                18      0.625060  1 S  pz         

 Vector   33  Occ=0.000000D+00  E= 3.275969D-02
              MO Center= -1.9D-01,  6.8D-03,  1.8D-01, r^2= 1.3D+01
   Bfn.  Coefficient  Atom+Function         Bfn.  Coefficient  Atom+Function  
  ----- ------------  ---------------      ----- ------------  ---------------
   119      1.990934  3 O  s                 19     -1.585354  1 S  px         
    64     -1.303117  2 O  s                 20      1.261431  1 S  py         
    16     -0.882760  1 S  px               229     -0.772004  5 O  s          
    17      0.708239  1 S  py                35      0.496101  1 S  dxy        
    36      0.351720  1 S  dxz               38     -0.286295  1 S  dyz        

 Vector   34  Occ=0.000000D+00  E= 9.109623D-02
              MO Center= -4.7D-01,  8.8D-02,  9.2D-02, r^2= 1.3D+01
   Bfn.  Coefficient  Atom+Function         Bfn.  Coefficient  Atom+Function  
  ----- ------------  ---------------      ----- ------------  ---------------
    17      2.609656  1 S  py               229      2.173735  5 O  s          
    18      1.883685  1 S  pz                16      1.671670  1 S  px         
   174     -1.303324  4 O  s                 64     -1.266941  2 O  s          
   239      1.007078  5 O  px               240      0.996231  5 O  py         
   186      0.964645  4 O  pz               241      0.925248  5 O  pz         

 Vector   35  Occ=0.000000D+00  E= 9.117604D-02
              MO Center= -9.9D-02,  2.0D-01,  7.5D-01, r^2= 1.3D+01
   Bfn.  Coefficient  Atom+Function         Bfn.  Coefficient  Atom+Function  
  ----- ------------  ---------------      ----- ------------  ---------------
    18      4.172019  1 S  pz               174     -2.839148  4 O  s          
   186      2.111949  4 O  pz                64      1.700705  2 O  s          
    17     -1.201987  1 S  py                75     -1.165973  2 O  py         
    59     -0.919073  1 S  fzzz              57     -0.871628  1 S  fyyz       
    52     -0.824268  1 S  fxxz             119      0.811012  3 O  s          

 Vector   36  Occ=0.000000D+00  E= 9.138833D-02
              MO Center=  2.8D-01, -3.5D-01, -7.3D-02, r^2= 1.3D+01
   Bfn.  Coefficient  Atom+Function         Bfn.  Coefficient  Atom+Function  
  ----- ------------  ---------------      ----- ------------  ---------------
    16      3.213326  1 S  px               119     -2.000700  3 O  s          
   229      1.564522  5 O  s                 35     -1.483060  1 S  dxy        
   239      1.132997  5 O  px                17     -1.116592  1 S  py         
   131     -1.117378  3 O  pz               129      0.946562  3 O  px         
    64      0.858859  2 O  s                 50     -0.693093  1 S  fxxx       

 Vector   37  Occ=0.000000D+00  E= 9.156318D-02
              MO Center= -2.8D-03,  2.6D-01, -4.9D-01, r^2= 1.3D+01
   Bfn.  Coefficient  Atom+Function         Bfn.  Coefficient  Atom+Function  
  ----- ------------  ---------------      ----- ------------  ---------------
    17      3.504712  1 S  py                64     -2.245685  2 O  s          
    38     -1.765341  1 S  dyz               75      1.753799  2 O  py         
   229      1.286896  5 O  s                239      1.149735  5 O  px         
   119      0.926556  3 O  s                129     -0.928384  3 O  px         
    51     -0.756279  1 S  fxxy              56     -0.754062  1 S  fyyy       

 Vector   38  Occ=0.000000D+00  E= 9.161247D-02
              MO Center=  2.8D-01, -1.9D-01, -3.8D-01, r^2= 1.3D+01
   Bfn.  Coefficient  Atom+Function         Bfn.  Coefficient  Atom+Function  
  ----- ------------  ---------------      ----- ------------  ---------------
    16      3.021008  1 S  px               119     -2.168406  3 O  s          
    36     -1.850552  1 S  dxz              129      1.379677  3 O  px         
   229      1.175222  5 O  s                130     -1.045377  3 O  py         
    18     -1.004358  1 S  pz               240      0.934558  5 O  py         
    17     -0.841915  1 S  py                74     -0.743609  2 O  px         

 Vector   39  Occ=0.000000D+00  E= 1.120338D-01
              MO Center=  1.1D-03, -1.4D-02, -4.5D-02, r^2= 1.5D+01
   Bfn.  Coefficient  Atom+Function         Bfn.  Coefficient  Atom+Function  
  ----- ------------  ---------------      ----- ------------  ---------------
     5      6.942473  1 S  s                229     -3.897114  5 O  s          
    64     -3.876794  2 O  s                119     -3.893666  3 O  s          
   174     -3.869176  4 O  s                 34      2.919749  1 S  dxx        
    37      2.910213  1 S  dyy               39      2.898820  1 S  dzz        
     6      2.733234  1 S  s                186      1.843038  4 O  pz         

 Vector   40  Occ=0.000000D+00  E= 1.632801D-01
              MO Center= -3.2D-01,  2.5D-01,  2.2D-01, r^2= 1.3D+01
   Bfn.  Coefficient  Atom+Function         Bfn.  Coefficient  Atom+Function  
  ----- ------------  ---------------      ----- ------------  ---------------
   185     -1.706185  4 O  py                76      1.600510  2 O  pz         
   241     -1.445931  5 O  pz               184     -0.802508  4 O  px         
   240      0.692863  5 O  py                75      0.534971  2 O  py         
    74      0.436512  2 O  px               130      0.380805  3 O  py         
   182      0.283576  4 O  py                73     -0.263142  2 O  pz         

 Vector   41  Occ=0.000000D+00  E= 1.634707D-01
              MO Center=  2.6D-01, -2.6D-01,  2.2D-01, r^2= 1.3D+01
   Bfn.  Coefficient  Atom+Function         Bfn.  Coefficient  Atom+Function  
  ----- ------------  ---------------      ----- ------------  ---------------
   131      1.752179  3 O  pz               184     -1.713039  4 O  px         
   241     -1.032791  5 O  pz               185      0.793559  4 O  py         
    76     -0.757032  2 O  pz               129      0.599947  3 O  px         
   239      0.600968  5 O  px                74      0.424611  2 O  px         
   240     -0.361425  5 O  py               128     -0.291016  3 O  pz         

 Vector   42  Occ=0.000000D+00  E= 1.637010D-01
              MO Center=  6.1D-02,  1.1D-02, -5.1D-01, r^2= 1.3D+01
   Bfn.  Coefficient  Atom+Function         Bfn.  Coefficient  Atom+Function  
  ----- ------------  ---------------      ----- ------------  ---------------
    74      1.770693  2 O  px               130     -1.589973  3 O  py         
   240      1.457477  5 O  py               129     -0.857658  3 O  px         
   239     -0.856828  5 O  px                71     -0.297063  2 O  px         
   127      0.266245  3 O  py               185      0.240194  4 O  py         
   237     -0.240752  5 O  py                76     -0.218568  2 O  pz         

 Vector   43  Occ=0.000000D+00  E= 1.813421D-01
              MO Center=  4.9D-03,  4.8D-02, -1.3D-01, r^2= 1.7D+01
   Bfn.  Coefficient  Atom+Function         Bfn.  Coefficient  Atom+Function  
  ----- ------------  ---------------      ----- ------------  ---------------
    21      5.340694  1 S  pz               174     -3.921020  4 O  s          
    18      2.701764  1 S  pz                76     -1.944645  2 O  pz         
   131     -1.866020  3 O  pz               241     -1.846149  5 O  pz         
   229      1.782834  5 O  s                119      1.693435  3 O  s          
    20      1.632788  1 S  py               186     -1.251679  4 O  pz         

 Vector   44  Occ=0.000000D+00  E= 1.814710D-01
              MO Center=  7.5D-02, -9.0D-02,  4.4D-02, r^2= 1.7D+01
   Bfn.  Coefficient  Atom+Function         Bfn.  Coefficient  Atom+Function  
  ----- ------------  ---------------      ----- ------------  ---------------
    20      4.636965  1 S  py                64     -3.445377  2 O  s          
   229      2.808793  5 O  s                 19      2.779138  1 S  px         
    17      2.309503  1 S  py               130     -1.753157  3 O  py         
   185     -1.685798  4 O  py               240     -1.468675  5 O  py         
    21     -1.443353  1 S  pz                16      1.368890  1 S  px         

 Vector   45  Occ=0.000000D+00  E= 1.817004D-01
              MO Center= -9.1D-02,  6.1D-02,  5.4D-02, r^2= 1.7D+01
   Bfn.  Coefficient  Atom+Function         Bfn.  Coefficient  Atom+Function  
  ----- ------------  ---------------      ----- ------------  ---------------
    19      4.871137  1 S  px               119     -3.462618  3 O  s          
    20     -2.674602  1 S  py                16      2.392094  1 S  px         
   229      2.095824  5 O  s                 64      1.989318  2 O  s          
    74     -1.800596  2 O  px               184     -1.780339  4 O  px         
   239     -1.496313  5 O  px                17     -1.326255  1 S  py         

 Vector   46  Occ=0.000000D+00  E= 2.186574D-01
              MO Center=  2.9D-02, -1.5D-02, -8.0D-02, r^2= 1.3D+01
   Bfn.  Coefficient  Atom+Function         Bfn.  Coefficient  Atom+Function  
  ----- ------------  ---------------      ----- ------------  ---------------
     6     20.482519  1 S  s                174     -7.394103  4 O  s          
   229     -7.249564  5 O  s                 64     -7.131614  2 O  s          
   119     -7.000140  3 O  s                  5     -6.486351  1 S  s          
   173      2.452031  4 O  s                228      2.450164  5 O  s          
    63      2.418350  2 O  s                118      2.407436  3 O  s          

 Vector   47  Occ=0.000000D+00  E= 2.221182D-01
              MO Center=  1.9D-01, -4.3D-02,  4.0D-02, r^2= 1.1D+01
   Bfn.  Coefficient  Atom+Function         Bfn.  Coefficient  Atom+Function  
  ----- ------------  ---------------      ----- ------------  ---------------
   119      5.729045  3 O  s                174     -4.627586  4 O  s          
    64     -3.617103  2 O  s                229      3.229051  5 O  s          
    17      2.834336  1 S  py               186      2.686399  4 O  pz         
    75      2.394338  2 O  py                18      2.370602  1 S  pz         
    20     -2.065427  1 S  py               130      2.048462  3 O  py         

 Vector   48  Occ=0.000000D+00  E= 2.221942D-01
              MO Center= -6.0D-02,  3.6D-01,  8.5D-02, r^2= 1.1D+01
   Bfn.  Coefficient  Atom+Function         Bfn.  Coefficient  Atom+Function  
  ----- ------------  ---------------      ----- ------------  ---------------
    64      6.634149  2 O  s                174     -4.931560  4 O  s          
    75     -3.226924  2 O  py               186      2.870661  4 O  pz         
   229     -2.637621  5 O  s                 18      2.547793  1 S  pz         
    17     -2.471633  1 S  py                21     -1.862076  1 S  pz         
    20      1.800714  1 S  py                76      1.764143  2 O  pz         

 Vector   49  Occ=0.000000D+00  E= 2.223251D-01
              MO Center= -1.5D-01, -3.2D-01, -1.8D-01, r^2= 1.1D+01
   Bfn.  Coefficient  Atom+Function         Bfn.  Coefficient  Atom+Function  
  ----- ------------  ---------------      ----- ------------  ---------------
   229      6.349865  5 O  s                119     -5.058616  3 O  s          
    16      3.469342  1 S  px               239      3.243651  5 O  px         
   174     -3.141376  4 O  s                129      2.816934  3 O  px         
    19     -2.480995  1 S  px               186      1.728641  4 O  pz         
    64      1.574037  2 O  s                 18      1.533813  1 S  pz         

 Vector   50  Occ=0.000000D+00  E= 2.636961D-01
              MO Center=  3.1D-01,  2.4D-01, -2.9D-02, r^2= 9.8D+00
   Bfn.  Coefficient  Atom+Function         Bfn.  Coefficient  Atom+Function  
  ----- ------------  ---------------      ----- ------------  ---------------
   229      7.502739  5 O  s                 35     -4.580654  1 S  dxy        
   174     -4.572745  4 O  s                 36     -3.220747  1 S  dxz        
   228      2.943648  5 O  s                119     -2.891999  3 O  s          
   239      2.725476  5 O  px                16      2.644308  1 S  px         
    39      2.350280  1 S  dzz               19     -2.212161  1 S  px         

 Vector   51  Occ=0.000000D+00  E= 2.638211D-01
              MO Center= -1.1D-01, -2.2D-02, -2.5D-01, r^2= 9.9D+00
   Bfn.  Coefficient  Atom+Function         Bfn.  Coefficient  Atom+Function  
  ----- ------------  ---------------      ----- ------------  ---------------
   174      6.496464  4 O  s                119     -4.740141  3 O  s          
    64     -3.978313  2 O  s                 39     -3.333778  1 S  dzz        
    35     -3.071364  1 S  dxy              186     -2.820701  4 O  pz         
    18     -2.712633  1 S  pz               173      2.582092  4 O  s          
    37      2.339102  1 S  dyy               21      2.260611  1 S  pz         

 Vector   52  Occ=0.000000D+00  E= 2.638652D-01
              MO Center= -1.9D-01, -2.2D-01,  2.0D-01, r^2= 9.9D+00
   Bfn.  Coefficient  Atom+Function         Bfn.  Coefficient  Atom+Function  
  ----- ------------  ---------------      ----- ------------  ---------------
    64      6.951312  2 O  s                119     -5.843584  3 O  s          
    38      3.877113  1 S  dyz               17     -3.194954  1 S  py         
    75     -3.151365  2 O  py                34      2.928222  1 S  dxx        
    63      2.748155  2 O  s                 20      2.646637  1 S  py         
   130     -2.596420  3 O  py                37     -2.558993  1 S  dyy        

 Vector   53  Occ=0.000000D+00  E= 2.966328D-01
              MO Center= -1.5D-03,  2.6D-03, -2.0D-02, r^2= 4.7D+00
   Bfn.  Coefficient  Atom+Function         Bfn.  Coefficient  Atom+Function  
  ----- ------------  ---------------      ----- ------------  ---------------
    38      3.560364  1 S  dyz               37      1.305712  1 S  dyy        
    34     -1.225467  1 S  dxx               36      1.135759  1 S  dxz        
   182     -0.952316  4 O  py                73     -0.897899  2 O  pz         
    35     -0.819902  1 S  dxy              127      0.807057  3 O  py         
    26      0.774408  1 S  dyz              238      0.694242  5 O  pz         

 Vector   54  Occ=0.000000D+00  E= 2.974372D-01
              MO Center= -1.2D-03,  2.1D-04, -2.2D-02, r^2= 4.7D+00
   Bfn.  Coefficient  Atom+Function         Bfn.  Coefficient  Atom+Function  
  ----- ------------  ---------------      ----- ------------  ---------------
    36      3.586372  1 S  dxz               35     -2.523740  1 S  dxy        
    38     -1.148332  1 S  dyz               71      0.954445  2 O  px         
   181     -0.954751  4 O  px               128     -0.926454  3 O  pz         
    24      0.775191  1 S  dxz              237     -0.752491  5 O  py         
   238      0.640769  5 O  pz               184     -0.545558  4 O  px         

 Vector   55  Occ=0.000000D+00  E= 3.124002D-01
              MO Center= -7.4D-03,  8.6D-03, -3.6D-03, r^2= 1.3D+01
   Bfn.  Coefficient  Atom+Function         Bfn.  Coefficient  Atom+Function  
  ----- ------------  ---------------      ----- ------------  ---------------
     5     13.742301  1 S  s                174     -9.633156  4 O  s          
    64     -9.574720  2 O  s                119     -9.508520  3 O  s          
   229     -9.533310  5 O  s                 34      7.730177  1 S  dxx        
    37      7.732213  1 S  dyy               39      7.754959  1 S  dzz        
     6      6.287615  1 S  s                186      2.794953  4 O  pz         

 Vector   56  Occ=0.000000D+00  E= 3.686438D-01
              MO Center= -2.0D-02, -2.0D-01,  6.8D-01, r^2= 9.7D+00
   Bfn.  Coefficient  Atom+Function         Bfn.  Coefficient  Atom+Function  
  ----- ------------  ---------------      ----- ------------  ---------------
    18     16.841830  1 S  pz               174    -10.509824  4 O  s          
    17      5.768832  1 S  py               229      5.461223  5 O  s          
   119      5.165840  3 O  s                 57     -3.949404  1 S  fyyz       
    52     -3.881508  1 S  fxxz              59     -3.820518  1 S  fzzz       
   186      3.399591  4 O  pz                39      2.870908  1 S  dzz        

 Vector   57  Occ=0.000000D+00  E= 3.688667D-01
              MO Center= -3.3D-01,  5.6D-01, -3.4D-01, r^2= 9.7D+00
   Bfn.  Coefficient  Atom+Function         Bfn.  Coefficient  Atom+Function  
  ----- ------------  ---------------      ----- ------------  ---------------
    17     15.290830  1 S  py                64    -10.183080  2 O  s          
    16      7.412404  1 S  px               229      7.229554  5 O  s          
    18     -5.349920  1 S  pz                58     -3.558097  1 S  fyzz       
    51     -3.526167  1 S  fxxy              56     -3.483239  1 S  fyyy       
   174      3.333492  4 O  s                 75      3.093798  2 O  py         

 Vector   58  Occ=0.000000D+00  E= 3.693016D-01
              MO Center=  3.5D-01, -3.7D-01, -4.3D-01, r^2= 9.8D+00
   Bfn.  Coefficient  Atom+Function         Bfn.  Coefficient  Atom+Function  
  ----- ------------  ---------------      ----- ------------  ---------------
    16     16.211553  1 S  px               119    -10.007948  3 O  s          
    17     -7.098873  1 S  py               229      6.628861  5 O  s          
    64      4.631377  2 O  s                 35     -4.001242  1 S  dxy        
    55     -3.771580  1 S  fxzz              50     -3.701402  1 S  fxxx       
    53     -3.701374  1 S  fxyy              36     -2.801959  1 S  dxz        

 Vector   59  Occ=0.000000D+00  E= 3.838907D-01
              MO Center=  1.8D-03, -4.9D-03, -2.9D-02, r^2= 8.1D+00
   Bfn.  Coefficient  Atom+Function         Bfn.  Coefficient  Atom+Function  
  ----- ------------  ---------------      ----- ------------  ---------------
    38      5.658854  1 S  dyz               37      1.993430  1 S  dyy        
    34     -1.970809  1 S  dxx               36      1.731994  1 S  dxz        
   182     -1.428605  4 O  py                73     -1.345627  2 O  pz         
    35     -1.209703  1 S  dxy              127      1.214280  3 O  py         
   203      1.180037  4 O  dyz              238      1.028820  5 O  pz         

 Vector   60  Occ=0.000000D+00  E= 3.842986D-01
              MO Center=  4.6D-05,  4.0D-03, -2.4D-02, r^2= 8.1D+00
   Bfn.  Coefficient  Atom+Function         Bfn.  Coefficient  Atom+Function  
  ----- ------------  ---------------      ----- ------------  ---------------
    36      5.660629  1 S  dxz               35     -3.948725  1 S  dxy        
    38     -1.721255  1 S  dyz               71      1.433073  2 O  px         
   181     -1.428457  4 O  px               128     -1.378584  3 O  pz         
    90     -1.212462  2 O  dxy              201      1.179863  4 O  dxz        
   237     -1.119053  5 O  py               184     -0.967803  4 O  px         

 Vector   61  Occ=0.000000D+00  E= 5.555097D-01
              MO Center= -1.8D-03,  4.0D-04, -6.4D-02, r^2= 6.1D+00
   Bfn.  Coefficient  Atom+Function         Bfn.  Coefficient  Atom+Function  
  ----- ------------  ---------------      ----- ------------  ---------------
   173      5.424976  4 O  s                 59     -4.683509  1 S  fzzz       
    57     -3.786548  1 S  fyyz              18      3.598594  1 S  pz         
    52     -3.598205  1 S  fxxz             183     -3.502278  4 O  pz         
    39     -3.176017  1 S  dzz              204      2.831296  4 O  dzz        
    63     -2.251020  2 O  s                 21      2.118451  1 S  pz         

 Vector   62  Occ=0.000000D+00  E= 5.556831D-01
              MO Center=  2.7D-02, -1.2D-02,  9.3D-03, r^2= 6.1D+00
   Bfn.  Coefficient  Atom+Function         Bfn.  Coefficient  Atom+Function  
  ----- ------------  ---------------      ----- ------------  ---------------
   228     -4.479132  5 O  s                 63      4.400958  2 O  s          
    51     -3.970143  1 S  fxxy              56     -3.884760  1 S  fyyy       
    58     -3.226973  1 S  fyzz              17      3.112662  1 S  py         
    38      2.820974  1 S  dyz               72     -2.663358  2 O  py         
   236     -2.357213  5 O  px                35      2.190590  1 S  dxy        

 Vector   63  Occ=0.000000D+00  E= 5.558213D-01
              MO Center= -3.2D-02,  2.3D-02,  7.1D-03, r^2= 6.1D+00
   Bfn.  Coefficient  Atom+Function         Bfn.  Coefficient  Atom+Function  
  ----- ------------  ---------------      ----- ------------  ---------------
   118      5.270126  3 O  s                 35      4.020344  1 S  dxy        
    50     -3.905006  1 S  fxxx              53     -3.906997  1 S  fxyy       
    55     -3.223907  1 S  fxzz              16      3.093124  1 S  px         
    36      2.816657  1 S  dxz              126     -2.767150  3 O  px         
   228     -2.543597  5 O  s                 63     -2.277702  2 O  s          

 Vector   64  Occ=0.000000D+00  E= 5.693307D-01
              MO Center= -2.7D-01,  1.8D-01,  1.9D-01, r^2= 5.2D+00
   Bfn.  Coefficient  Atom+Function         Bfn.  Coefficient  Atom+Function  
  ----- ------------  ---------------      ----- ------------  ---------------
    58      1.306527  1 S  fyzz             256     -1.121494  5 O  dxz        
    93     -1.099670  2 O  dyz              203      0.986317  4 O  dyz        
   255      0.872828  5 O  dxy              182     -0.740805  4 O  py         
    55      0.684071  1 S  fxzz              73      0.668806  2 O  pz         
   238     -0.642477  5 O  pz               200     -0.595622  4 O  dxy        

 Vector   65  Occ=0.000000D+00  E= 5.696559D-01
              MO Center=  2.4D-01, -1.4D-01,  2.1D-01, r^2= 5.2D+00
   Bfn.  Coefficient  Atom+Function         Bfn.  Coefficient  Atom+Function  
  ----- ------------  ---------------      ----- ------------  ---------------
    55      1.282091  1 S  fxzz             200     -1.134512  4 O  dxy        
   146     -1.095036  3 O  dxz              201      0.983957  4 O  dxz        
   145      0.931863  3 O  dxy               54      0.903720  1 S  fxyz       
   128      0.770364  3 O  pz               181     -0.755747  4 O  px         
   258     -0.697240  5 O  dyz               58     -0.682804  1 S  fyzz       

 Vector   66  Occ=0.000000D+00  E= 5.700833D-01
              MO Center=  1.9D-02, -2.0D-02, -4.4D-01, r^2= 5.1D+00
   Bfn.  Coefficient  Atom+Function         Bfn.  Coefficient  Atom+Function  
  ----- ------------  ---------------      ----- ------------  ---------------
    53      1.463965  1 S  fxyy              91     -1.451289  2 O  dxz        
   148      1.326112  3 O  dyz              258     -1.315644  5 O  dyz        
    71     -0.783790  2 O  px               146      0.737879  3 O  dxz        
   127      0.695709  3 O  py               237     -0.657376  5 O  py         
   256      0.654597  5 O  dxz               90      0.567334  2 O  dxy        

 Vector   67  Occ=0.000000D+00  E= 5.906916D-01
              MO Center= -3.0D-01,  2.3D-01,  3.4D-01, r^2= 8.3D+00
   Bfn.  Coefficient  Atom+Function         Bfn.  Coefficient  Atom+Function  
  ----- ------------  ---------------      ----- ------------  ---------------
   185     -1.275032  4 O  py                76      1.190180  2 O  pz         
   241     -1.121807  5 O  pz               203      1.079664  4 O  dyz        
   182      1.030750  4 O  py                58      0.937898  1 S  fyzz       
    73     -0.936722  2 O  pz               238      0.881778  5 O  pz         
    93     -0.763696  2 O  dyz              184     -0.672862  4 O  px         

 Vector   68  Occ=0.000000D+00  E= 5.913165D-01
              MO Center=  2.2D-01, -2.2D-01,  3.6D-01, r^2= 8.3D+00
   Bfn.  Coefficient  Atom+Function         Bfn.  Coefficient  Atom+Function  
  ----- ------------  ---------------      ----- ------------  ---------------
   131      1.303168  3 O  pz               184     -1.267649  4 O  px         
   201      1.090816  4 O  dxz              181      1.047684  4 O  px         
   128     -1.003946  3 O  pz                55      0.924275  1 S  fxzz       
   146     -0.735179  3 O  dxz              241     -0.720311  5 O  pz         
   185      0.661831  4 O  py                76     -0.629761  2 O  pz         

 Vector   69  Occ=0.000000D+00  E= 5.919061D-01
              MO Center=  2.7D-02,  9.9D-02, -5.6D-01, r^2= 8.2D+00
   Bfn.  Coefficient  Atom+Function         Bfn.  Coefficient  Atom+Function  
  ----- ------------  ---------------      ----- ------------  ---------------
    74      1.366351  2 O  px               130     -1.173980  3 O  py         
    90     -1.147503  2 O  dxy               71     -1.111852  2 O  px         
   240      1.113474  5 O  py                53     -1.089718  1 S  fxyy       
   127      0.918587  3 O  py               237     -0.872389  5 O  py         
   129     -0.615482  3 O  px               239     -0.614938  5 O  px         

 Vector   70  Occ=0.000000D+00  E= 5.972242D-01
              MO Center=  6.7D-03,  2.6D-02, -7.1D-02, r^2= 5.3D+00
   Bfn.  Coefficient  Atom+Function         Bfn.  Coefficient  Atom+Function  
  ----- ------------  ---------------      ----- ------------  ---------------
    26      1.153782  1 S  dyz               73      0.628933  2 O  pz         
   182      0.589863  4 O  py               148     -0.562942  3 O  dyz        
   127     -0.517057  3 O  py                94     -0.508758  2 O  dzz        
   238     -0.456060  5 O  pz               255      0.417841  5 O  dxy        
   199      0.404450  4 O  dxx              202     -0.403559  4 O  dyy        

 Vector   71  Occ=0.000000D+00  E= 5.974968D-01
              MO Center=  2.8D-02, -1.1D-01, -1.4D-01, r^2= 5.3D+00
   Bfn.  Coefficient  Atom+Function         Bfn.  Coefficient  Atom+Function  
  ----- ------------  ---------------      ----- ------------  ---------------
    24      1.148236  1 S  dxz               23     -0.794876  1 S  dxy        
   200      0.784380  4 O  dxy              128      0.678073  3 O  pz         
    91     -0.647023  2 O  dxz               71     -0.555442  2 O  px         
    90     -0.539844  2 O  dxy              181      0.525088  4 O  px         
   149     -0.511089  3 O  dzz              238     -0.510462  5 O  pz         

 Vector   72  Occ=0.000000D+00  E= 6.222138D-01
              MO Center= -2.6D-02, -1.7D-02,  5.9D-01, r^2= 7.9D+00
   Bfn.  Coefficient  Atom+Function         Bfn.  Coefficient  Atom+Function  
  ----- ------------  ---------------      ----- ------------  ---------------
   174      9.575062  4 O  s                229     -3.457510  5 O  s          
    64     -2.951833  2 O  s                186     -2.931672  4 O  pz         
    18     -2.850846  1 S  pz               119     -2.348419  3 O  s          
    52      1.989948  1 S  fxxz              57      1.984446  1 S  fyyz       
   204     -1.985221  4 O  dzz              199     -1.672349  4 O  dxx        

 Vector   73  Occ=0.000000D+00  E= 6.226364D-01
              MO Center= -2.4D-01,  3.3D-01, -3.5D-01, r^2= 7.9D+00
   Bfn.  Coefficient  Atom+Function         Bfn.  Coefficient  Atom+Function  
  ----- ------------  ---------------      ----- ------------  ---------------
    64      8.367554  2 O  s                229     -6.523852  5 O  s          
    75     -2.616903  2 O  py                17     -2.585926  1 S  py         
    58      1.917001  1 S  fyzz             240     -1.846723  5 O  py         
    94     -1.646194  2 O  dzz               92     -1.561296  2 O  dyy        
   254      1.534123  5 O  dxx               89     -1.482062  2 O  dxx        

 Vector   74  Occ=0.000000D+00  E= 6.229985D-01
              MO Center=  2.7D-01, -3.2D-01, -3.3D-01, r^2= 7.9D+00
   Bfn.  Coefficient  Atom+Function         Bfn.  Coefficient  Atom+Function  
  ----- ------------  ---------------      ----- ------------  ---------------
   119      8.641155  3 O  s                229     -5.522918  5 O  s          
    64     -2.832633  2 O  s                 16     -2.563465  1 S  px         
   129     -2.498492  3 O  px               239     -2.081219  5 O  px         
    55      1.953664  1 S  fxzz             149     -1.694112  3 O  dzz        
   147     -1.666009  3 O  dyy              144     -1.495103  3 O  dxx        

 Vector   75  Occ=0.000000D+00  E= 6.328078D-01
              MO Center= -7.5D-03,  6.9D-03, -7.7D-03, r^2= 9.5D+00
   Bfn.  Coefficient  Atom+Function         Bfn.  Coefficient  Atom+Function  
  ----- ------------  ---------------      ----- ------------  ---------------
     5     34.939406  1 S  s                  6    -11.558311  1 S  s          
    64     10.454546  2 O  s                119     10.481742  3 O  s          
   229     10.481891  5 O  s                174     10.411803  4 O  s          
   118     -9.933559  3 O  s                 63     -9.875406  2 O  s          
   228     -9.897214  5 O  s                173     -9.815029  4 O  s          

 Vector   76  Occ=0.000000D+00  E= 6.561528D-01
              MO Center=  1.1D-01,  8.3D-02, -3.2D-01, r^2= 9.1D+00
   Bfn.  Coefficient  Atom+Function         Bfn.  Coefficient  Atom+Function  
  ----- ------------  ---------------      ----- ------------  ---------------
   174     -5.106347  4 O  s                 18      4.933121  1 S  pz         
   229      3.810483  5 O  s                183      2.814445  4 O  pz         
   173     -2.705703  4 O  s                 21      2.622840  1 S  pz         
    39      2.212715  1 S  dzz               34     -1.853750  1 S  dxx        
   228      1.665817  5 O  s                 17      1.556956  1 S  py         

 Vector   77  Occ=0.000000D+00  E= 6.562748D-01
              MO Center=  1.2D-01, -8.7D-02,  6.2D-02, r^2= 9.2D+00
   Bfn.  Coefficient  Atom+Function         Bfn.  Coefficient  Atom+Function  
  ----- ------------  ---------------      ----- ------------  ---------------
    64      4.304185  2 O  s                229     -4.168652  5 O  s          
    16     -3.528906  1 S  px                17     -3.485027  1 S  py         
    35      2.375405  1 S  dxy              119      2.142699  3 O  s          
   174     -2.061998  4 O  s                228     -2.057516  5 O  s          
    18      2.014936  1 S  pz                63      1.994034  2 O  s          

 Vector   78  Occ=0.000000D+00  E= 6.564671D-01
              MO Center= -2.1D-01, -1.4D-02,  1.3D-01, r^2= 9.1D+00
   Bfn.  Coefficient  Atom+Function         Bfn.  Coefficient  Atom+Function  
  ----- ------------  ---------------      ----- ------------  ---------------
   119      5.381750  3 O  s                 16     -3.832280  1 S  px         
    64     -3.836398  2 O  s                 17      3.767762  1 S  py         
    35      2.575253  1 S  dxy              118      2.427509  3 O  s          
   126     -2.105891  3 O  px                19     -1.994006  1 S  px         
    20      1.968226  1 S  py                63     -1.932763  2 O  s          

 Vector   79  Occ=0.000000D+00  E= 6.940829D-01
              MO Center=  1.9D-03, -9.2D-03, -3.9D-02, r^2= 7.7D+00
   Bfn.  Coefficient  Atom+Function         Bfn.  Coefficient  Atom+Function  
  ----- ------------  ---------------      ----- ------------  ---------------
     5     19.711366  1 S  s                  6    -14.828197  1 S  s          
    63     -5.485544  2 O  s                173     -5.499293  4 O  s          
   118     -5.460817  3 O  s                228     -5.457925  5 O  s          
    39      4.366877  1 S  dzz               37      4.331360  1 S  dyy        
    34      4.290901  1 S  dxx              183      3.789995  4 O  pz         

 Vector   80  Occ=0.000000D+00  E= 7.282938D-01
              MO Center= -4.6D-02,  6.1D-02,  3.4D-01, r^2= 6.0D+00
   Bfn.  Coefficient  Atom+Function         Bfn.  Coefficient  Atom+Function  
  ----- ------------  ---------------      ----- ------------  ---------------
    52      4.433678  1 S  fxxz              57      3.528622  1 S  fyyz       
    51     -3.176370  1 S  fxxy              12      3.160023  1 S  pz         
   183      3.162717  4 O  pz               204     -2.610880  4 O  dzz        
    72     -1.879863  2 O  py               173     -1.757590  4 O  s          
    92      1.535792  2 O  dyy                9      1.339750  1 S  pz         

 Vector   81  Occ=0.000000D+00  E= 7.288377D-01
              MO Center= -2.6D-01,  1.1D-01, -2.2D-01, r^2= 6.1D+00
   Bfn.  Coefficient  Atom+Function         Bfn.  Coefficient  Atom+Function  
  ----- ------------  ---------------      ----- ------------  ---------------
    58      3.460855  1 S  fyzz              54     -3.047060  1 S  fxyz       
    11      2.764414  1 S  py                57      2.772759  1 S  fyyz       
   236      2.497188  5 O  px                52     -2.315667  1 S  fxxz       
    72      2.243045  2 O  py                55      2.073958  1 S  fxzz       
   254      1.793198  5 O  dxx               56      1.743312  1 S  fyyy       

 Vector   82  Occ=0.000000D+00  E= 7.291288D-01
              MO Center=  3.0D-01, -1.7D-01, -2.0D-01, r^2= 6.0D+00
   Bfn.  Coefficient  Atom+Function         Bfn.  Coefficient  Atom+Function  
  ----- ------------  ---------------      ----- ------------  ---------------
    54      5.020290  1 S  fxyz              55     -3.438774  1 S  fxzz       
    10     -2.731426  1 S  px               126     -2.561923  3 O  px         
    57      2.278009  1 S  fyyz             145     -2.093211  3 O  dxy        
    58      1.994224  1 S  fyzz             118      1.810975  3 O  s          
    90     -1.714946  2 O  dxy              255     -1.718433  5 O  dxy        

 Vector   83  Occ=0.000000D+00  E= 7.337111D-01
              MO Center=  6.3D-04,  6.8D-04, -2.6D-02, r^2= 6.9D+00
   Bfn.  Coefficient  Atom+Function         Bfn.  Coefficient  Atom+Function  
  ----- ------------  ---------------      ----- ------------  ---------------
    38      4.457431  1 S  dyz               36      1.721138  1 S  dxz        
   182     -1.725694  4 O  py                34     -1.626449  1 S  dxx        
    73     -1.625687  2 O  pz                37      1.613544  1 S  dyy        
   127      1.489641  3 O  py               238      1.376984  5 O  pz         
    35     -1.252257  1 S  dxy               26     -1.114212  1 S  dyz        

 Vector   84  Occ=0.000000D+00  E= 7.339959D-01
              MO Center=  1.9D-03, -2.5D-03, -2.8D-02, r^2= 6.9D+00
   Bfn.  Coefficient  Atom+Function         Bfn.  Coefficient  Atom+Function  
  ----- ------------  ---------------      ----- ------------  ---------------
    36      4.491689  1 S  dxz               35     -3.187342  1 S  dxy        
    38     -1.729031  1 S  dyz              128     -1.713692  3 O  pz         
   181     -1.716490  4 O  px                71      1.693039  2 O  px         
   237     -1.421269  5 O  py                24     -1.125464  1 S  dxz        
   238      1.106039  5 O  pz                91     -0.965763  2 O  dxz        

 Vector   85  Occ=0.000000D+00  E= 8.141298D-01
              MO Center= -2.9D-03,  3.0D-03, -1.7D-02, r^2= 7.2D+00
   Bfn.  Coefficient  Atom+Function         Bfn.  Coefficient  Atom+Function  
  ----- ------------  ---------------      ----- ------------  ---------------
     5     25.385723  1 S  s                174     -8.324235  4 O  s          
    64     -8.271981  2 O  s                119     -8.217065  3 O  s          
   229     -8.240603  5 O  s                 63     -7.468987  2 O  s          
   118     -7.458045  3 O  s                173     -7.483255  4 O  s          
   228     -7.466459  5 O  s                  6      6.504129  1 S  s          

 Vector   86  Occ=0.000000D+00  E= 8.500372D-01
              MO Center=  4.3D-02, -1.1D-01,  2.0D-01, r^2= 6.6D+00
   Bfn.  Coefficient  Atom+Function         Bfn.  Coefficient  Atom+Function  
[...]
    87      0.950710  2 O  dyz              113      0.848716  2 O  fyzz       

 Vector  254  Occ=0.000000D+00  E= 7.185243D+00
              MO Center=  3.0D-03,  5.6D-04, -3.5D-02, r^2= 2.7D+00
   Bfn.  Coefficient  Atom+Function         Bfn.  Coefficient  Atom+Function  
  ----- ------------  ---------------      ----- ------------  ---------------
    24      4.792101  1 S  dxz               23     -3.413833  1 S  dxy        
    26     -1.495948  1 S  dyz               84     -1.422593  2 O  dxy        
   108      1.404845  2 O  fxyy             195      1.360427  4 O  dxz        
   220     -1.335487  4 O  fxzz              78      1.082024  2 O  dxy        
   189     -1.025704  4 O  dxz              140      0.873156  3 O  dxz        

 Vector  255  Occ=0.000000D+00  E= 7.574835D+00
              MO Center= -5.8D-03,  1.0D-02,  7.8D-04, r^2= 2.5D+00
   Bfn.  Coefficient  Atom+Function         Bfn.  Coefficient  Atom+Function  
  ----- ------------  ---------------      ----- ------------  ---------------
     5     17.628570  1 S  s                173    -16.134608  4 O  s          
    63    -15.763033  2 O  s                228    -15.615010  5 O  s          
   118    -15.466912  3 O  s                 27      9.804928  1 S  dzz        
    25      9.600508  1 S  dyy               22      9.504086  1 S  dxx        
     3     -8.259073  1 S  s                183      5.710049  4 O  pz         

 Vector  256  Occ=0.000000D+00  E= 7.644159D+00
              MO Center= -4.6D-02,  1.8D-01,  8.3D-01, r^2= 2.4D+00
   Bfn.  Coefficient  Atom+Function         Bfn.  Coefficient  Atom+Function  
  ----- ------------  ---------------      ----- ------------  ---------------
    12     27.817832  1 S  pz               173    -18.707394  4 O  s          
     9     12.824052  1 S  pz                63      9.835889  2 O  s          
    42     -8.589555  1 S  fxxz              27      8.030491  1 S  dzz        
    47     -8.069116  1 S  fyyz              49     -7.009230  1 S  fzzz       
    15     -6.013936  1 S  pz               228      6.031358  5 O  s          

 Vector  257  Occ=0.000000D+00  E= 7.646691D+00
              MO Center= -4.5D-01,  3.6D-01, -4.6D-01, r^2= 2.6D+00
   Bfn.  Coefficient  Atom+Function         Bfn.  Coefficient  Atom+Function  
  ----- ------------  ---------------      ----- ------------  ---------------
    11     26.419942  1 S  py                63    -15.936539  2 O  s          
   228     14.752742  5 O  s                  8     12.179595  1 S  py         
    10      9.197578  1 S  px                48     -7.915538  1 S  fyzz       
    26     -7.804938  1 S  dyz               46     -7.042464  1 S  fyyy       
    41     -6.737970  1 S  fxxy              22     -6.186967  1 S  dxx        

 Vector  258  Occ=0.000000D+00  E= 7.648082D+00
              MO Center=  5.0D-01, -5.6D-01, -4.7D-01, r^2= 2.4D+00
   Bfn.  Coefficient  Atom+Function         Bfn.  Coefficient  Atom+Function  
  ----- ------------  ---------------      ----- ------------  ---------------
    10     26.661007  1 S  px               118    -18.628077  3 O  s          
     7     12.290696  1 S  px                23    -11.129780  1 S  dxy        
   228     11.148526  5 O  s                 11     -8.779731  1 S  py         
    45     -8.004214  1 S  fxzz              24     -7.825364  1 S  dxz        
    40     -7.026719  1 S  fxxx              43     -7.020851  1 S  fxyy       

 Vector  259  Occ=0.000000D+00  E= 1.231876D+01
              MO Center= -3.6D-02,  1.2D-01,  7.3D-01, r^2= 2.7D+00
   Bfn.  Coefficient  Atom+Function         Bfn.  Coefficient  Atom+Function  
  ----- ------------  ---------------      ----- ------------  ---------------
    12     13.577057  1 S  pz               171     10.057601  4 O  s          
    27      6.308770  1 S  dzz                9      6.257241  1 S  pz         
   180      5.841100  4 O  pz               170      5.321680  4 O  s          
   173     -4.975156  4 O  s                 18     -4.839781  1 S  pz         
    61     -4.741285  2 O  s                198     -4.502614  4 O  dzz        

 Vector  260  Occ=0.000000D+00  E= 1.232096D+01
              MO Center= -3.7D-01,  3.3D-01, -4.0D-01, r^2= 2.9D+00
   Bfn.  Coefficient  Atom+Function         Bfn.  Coefficient  Atom+Function  
  ----- ------------  ---------------      ----- ------------  ---------------
    11     12.866820  1 S  py                61      8.575099  2 O  s          
   226     -7.629539  5 O  s                 26     -5.988412  1 S  dyz        
     8      5.929907  1 S  py                17     -4.583647  1 S  py         
    22     -4.594942  1 S  dxx               10      4.529447  1 S  px         
    60      4.537177  2 O  s                 69      4.454430  2 O  py         

 Vector  261  Occ=0.000000D+00  E= 1.232218D+01
              MO Center=  4.0D-01, -4.6D-01, -4.0D-01, r^2= 2.8D+00
   Bfn.  Coefficient  Atom+Function         Bfn.  Coefficient  Atom+Function  
  ----- ------------  ---------------      ----- ------------  ---------------
    10     12.943221  1 S  px               116      9.690769  3 O  s          
    23     -8.507385  1 S  dxy               54      6.685857  1 S  fxyz       
     7      5.965110  1 S  px                24     -5.982569  1 S  dxz        
   226     -5.952157  5 O  s                115      5.127454  3 O  s          
   118     -4.729245  3 O  s                 16     -4.610546  1 S  px         

 Vector  262  Occ=0.000000D+00  E= 1.281872D+01
              MO Center=  7.4D-04, -1.5D-03, -2.8D-02, r^2= 3.8D+00
   Bfn.  Coefficient  Atom+Function         Bfn.  Coefficient  Atom+Function  
  ----- ------------  ---------------      ----- ------------  ---------------
     5     49.390257  1 S  s                 63    -16.350740  2 O  s          
   118    -16.362032  3 O  s                173    -16.341730  4 O  s          
   228    -16.356461  5 O  s                 51     -8.474127  1 S  fxxy       
   183      8.146915  4 O  pz                72      7.671817  2 O  py         
    61      6.648835  2 O  s                116      6.673034  3 O  s          

 Vector  263  Occ=0.000000D+00  E= 1.318129D+01
              MO Center= -2.8D-01,  2.1D-01,  2.4D-01, r^2= 3.7D+00
   Bfn.  Coefficient  Atom+Function         Bfn.  Coefficient  Atom+Function  
  ----- ------------  ---------------      ----- ------------  ---------------
   179     -9.096931  4 O  py                70      8.526344  2 O  pz         
   235     -8.016133  5 O  pz               178     -4.631298  4 O  px         
   206      4.559699  4 O  fxxy             211      4.559767  4 O  fyyy       
   213      4.507954  4 O  fyzz              97     -4.278502  2 O  fxxz       
   102     -4.249402  2 O  fyyz             104     -4.262467  2 O  fzzz       

 Vector  264  Occ=0.000000D+00  E= 1.318285D+01
              MO Center=  2.4D-01, -2.8D-01,  2.1D-01, r^2= 3.7D+00
   Bfn.  Coefficient  Atom+Function         Bfn.  Coefficient  Atom+Function  
  ----- ------------  ---------------      ----- ------------  ---------------
   125      9.381519  3 O  pz               178     -8.936271  4 O  px         
   235     -5.105976  5 O  pz               152     -4.684104  3 O  fxxz       
   157     -4.699139  3 O  fyyz             159     -4.690525  3 O  fzzz       
   179      4.575220  4 O  py               205      4.480904  4 O  fxxx       
   208      4.474198  4 O  fxyy             210      4.428610  4 O  fxzz       

 Vector  265  Occ=0.000000D+00  E= 1.318412D+01
              MO Center=  4.1D-02,  7.6D-02, -5.1D-01, r^2= 3.7D+00
   Bfn.  Coefficient  Atom+Function         Bfn.  Coefficient  Atom+Function  
  ----- ------------  ---------------      ----- ------------  ---------------
    68     10.001331  2 O  px               124     -8.381402  3 O  py         
   234      7.926791  5 O  py                95     -5.014605  2 O  fxxx       
   100     -5.013733  2 O  fxzz              98     -4.950359  2 O  fxyy       
   151      4.188977  3 O  fxxy             156      4.188741  3 O  fyyy       
   158      4.201477  3 O  fyzz             123     -4.145549  3 O  px         

 Vector  266  Occ=0.000000D+00  E= 1.370137D+01
              MO Center=  3.5D-01,  9.6D-03,  1.8D-01, r^2= 3.7D+00
   Bfn.  Coefficient  Atom+Function         Bfn.  Coefficient  Atom+Function  
  ----- ------------  ---------------      ----- ------------  ---------------
   179      8.057286  4 O  py               124      7.811566  3 O  py         
    11      6.004821  1 S  py                17     -5.922524  1 S  py         
   178      5.633510  4 O  px               123      5.566932  3 O  px         
    68      5.525290  2 O  px               234      4.827264  5 O  py         
    70      4.410872  2 O  pz                10      4.218538  1 S  px         

 Vector  267  Occ=0.000000D+00  E= 1.370168D+01
              MO Center= -3.8D-01,  2.4D-01,  8.6D-02, r^2= 3.6D+00
   Bfn.  Coefficient  Atom+Function         Bfn.  Coefficient  Atom+Function  
  ----- ------------  ---------------      ----- ------------  ---------------
   178      8.127081  4 O  px                68      7.995744  2 O  px         
   233      6.231325  5 O  px                10      6.092628  1 S  px         
    16     -6.008677  1 S  px               234     -5.158945  5 O  py         
   235     -5.174042  5 O  pz                70     -5.017351  2 O  pz         
   179     -4.214707  4 O  py               205     -4.101066  4 O  fxxx       

 Vector  268  Occ=0.000000D+00  E= 1.370299D+01
              MO Center=  2.0D-02, -2.4D-01, -3.1D-01, r^2= 3.7D+00
   Bfn.  Coefficient  Atom+Function         Bfn.  Coefficient  Atom+Function  
  ----- ------------  ---------------      ----- ------------  ---------------
   125      8.967786  3 O  pz               235      8.100901  5 O  pz         
    70      6.905935  2 O  pz                12      6.545640  1 S  pz         
    18     -6.456424  1 S  pz               234     -5.478917  5 O  py         
   179     -4.598265  4 O  py               152     -4.570377  3 O  fxxz       
   157     -4.549613  3 O  fyyz             159     -4.540696  3 O  fzzz       

 Vector  269  Occ=0.000000D+00  E= 1.380622D+01
              MO Center=  8.3D-03, -1.4D-02, -4.6D-02, r^2= 3.8D+00
   Bfn.  Coefficient  Atom+Function         Bfn.  Coefficient  Atom+Function  
  ----- ------------  ---------------      ----- ------------  ---------------
   179      7.796504  4 O  py                70      7.458501  2 O  pz         
   124     -6.959021  3 O  py               235     -5.834989  5 O  pz         
   123     -4.683692  3 O  px               233      4.626192  5 O  px         
   213     -4.032237  4 O  fyzz             206     -3.961580  4 O  fxxy       
   211     -3.961535  4 O  fyyy             234     -3.964698  5 O  py         

 Vector  270  Occ=0.000000D+00  E= 1.380758D+01
              MO Center=  4.7D-03,  2.4D-03, -3.7D-02, r^2= 3.8D+00
   Bfn.  Coefficient  Atom+Function         Bfn.  Coefficient  Atom+Function  
  ----- ------------  ---------------      ----- ------------  ---------------
    68      8.046389  2 O  px               178     -7.864280  4 O  px         
   125     -7.787353  3 O  pz               234     -6.324418  5 O  py         
   235      5.262232  5 O  pz                98     -4.156418  2 O  fxyy       
    95     -4.087702  2 O  fxxx             100     -4.089924  2 O  fxzz       
   210      4.066601  4 O  fxzz             152      3.986736  3 O  fxxz       

 Vector  271  Occ=0.000000D+00  E= 1.491331D+01
              MO Center= -8.1D-04,  1.3D-03, -2.2D-02, r^2= 3.4D+00
   Bfn.  Coefficient  Atom+Function         Bfn.  Coefficient  Atom+Function  
  ----- ------------  ---------------      ----- ------------  ---------------
     5     44.884356  1 S  s                183     10.566452  4 O  pz         
    72      9.931139  2 O  py               126      8.597630  3 O  px         
   236     -8.593374  5 O  px               180      8.488507  4 O  pz         
    69      7.982295  2 O  py                63     -6.923527  2 O  s          
   118     -6.919109  3 O  s                123      6.913522  3 O  px         

 Vector  272  Occ=0.000000D+00  E= 1.620907D+01
              MO Center= -4.4D-02,  1.9D-01,  9.9D-01, r^2= 2.5D+00
   Bfn.  Coefficient  Atom+Function         Bfn.  Coefficient  Atom+Function  
  ----- ------------  ---------------      ----- ------------  ---------------
   183     15.495372  4 O  pz               180     10.857615  4 O  pz         
    18      9.047179  1 S  pz                72     -7.863694  2 O  py         
   171     -7.836911  4 O  s                173     -7.420052  4 O  s          
   217     -6.300901  4 O  fxxz             222     -6.313156  4 O  fyyz       
   207     -5.972080  4 O  fxxz             212     -5.953431  4 O  fyyz       

 Vector  273  Occ=0.000000D+00  E= 1.621190D+01
              MO Center= -4.7D-01,  4.6D-01, -5.2D-01, r^2= 2.9D+00
   Bfn.  Coefficient  Atom+Function         Bfn.  Coefficient  Atom+Function  
  ----- ------------  ---------------      ----- ------------  ---------------
    72     12.152393  2 O  py               236     10.168496  5 O  px         
    17      8.675562  1 S  py                69      8.709081  2 O  py         
   233      6.742388  5 O  px                61     -6.702549  2 O  s          
    63     -6.344232  2 O  s                226      5.844015  5 O  s          
   228      5.535393  5 O  s                 73     -5.439524  2 O  pz         

 Vector  274  Occ=0.000000D+00  E= 1.621354D+01
              MO Center=  5.1D-01, -6.5D-01, -5.3D-01, r^2= 2.6D+00
   Bfn.  Coefficient  Atom+Function         Bfn.  Coefficient  Atom+Function  
  ----- ------------  ---------------      ----- ------------  ---------------
   126     11.770339  3 O  px                16      8.757175  1 S  px         
   123      8.481243  3 O  px               116     -7.517162  3 O  s          
   127     -7.412289  3 O  py               118     -7.118296  3 O  s          
   236      6.774974  5 O  px               237      5.879346  5 O  py         
   128     -5.448869  3 O  pz               233      5.328909  5 O  px         

 Vector  275  Occ=0.000000D+00  E= 1.685087D+01
              MO Center= -2.2D-03,  8.0D-03,  1.3D+00, r^2= 1.0D+00
   Bfn.  Coefficient  Atom+Function         Bfn.  Coefficient  Atom+Function  
  ----- ------------  ---------------      ----- ------------  ---------------
   183     12.818426  4 O  pz               180      9.325701  4 O  pz         
   173      8.031565  4 O  s                 18      7.496790  1 S  pz         
   204     -7.387074  4 O  dzz                5      6.249321  1 S  s          
   217     -5.284116  4 O  fxxz             222     -5.287114  4 O  fyyz       
   207     -5.077135  4 O  fxxz             212     -5.075099  4 O  fyyz       

 Vector  276  Occ=0.000000D+00  E= 1.685466D+01
              MO Center= -1.2D-02,  1.2D+00, -4.8D-01, r^2= 1.1D+00
   Bfn.  Coefficient  Atom+Function         Bfn.  Coefficient  Atom+Function  
  ----- ------------  ---------------      ----- ------------  ---------------
    72     11.823055  2 O  py                69      8.635375  2 O  py         
    63      8.040782  2 O  s                 17      7.203102  1 S  py         
    92     -7.010056  2 O  dyy                5      6.570203  1 S  s          
    94     -5.246456  2 O  dzz               86     -4.983382  2 O  dyy        
    83     -4.914337  2 O  dxx               88     -4.910734  2 O  dzz        

 Vector  277  Occ=0.000000D+00  E= 1.685631D+01
              MO Center= -1.1D+00, -6.2D-01, -4.7D-01, r^2= 1.1D+00
   Bfn.  Coefficient  Atom+Function         Bfn.  Coefficient  Atom+Function  
  ----- ------------  ---------------      ----- ------------  ---------------
   236      9.857648  5 O  px               228     -8.139206  5 O  s          
     5     -7.629840  1 S  s                233      7.246034  5 O  px         
   254      6.335064  5 O  dxx               16      6.268684  1 S  px         
   237      6.000970  5 O  py               257      5.418966  5 O  dyy        
   259      5.126384  5 O  dzz              248      4.998574  5 O  dxx        

 Vector  278  Occ=0.000000D+00  E= 1.685778D+01
              MO Center=  1.1D+00, -6.3D-01, -4.7D-01, r^2= 1.0D+00
   Bfn.  Coefficient  Atom+Function         Bfn.  Coefficient  Atom+Function  
  ----- ------------  ---------------      ----- ------------  ---------------
   126      9.883496  3 O  px                 5      8.362804  1 S  s          
   118      8.243590  3 O  s                123      7.213692  3 O  px         
   144     -6.362015  3 O  dxx              127     -5.666614  3 O  py         
    16      5.419473  1 S  px               147     -5.333508  3 O  dyy        
   149     -5.072355  3 O  dzz              138     -5.025555  3 O  dxx        

 Vector  279  Occ=0.000000D+00  E= 3.645284D+01
              MO Center= -3.3D-04,  4.1D-04, -2.4D-02, r^2= 2.9D+00
   Bfn.  Coefficient  Atom+Function         Bfn.  Coefficient  Atom+Function  
  ----- ------------  ---------------      ----- ------------  ---------------
     5    205.097867  1 S  s                  3    -67.527593  1 S  s          
    63    -50.547426  2 O  s                118    -50.550299  3 O  s          
   173    -50.553283  4 O  s                228    -50.548216  5 O  s          
     2    -46.891601  1 S  s                183     37.557550  4 O  pz         
    72     35.376035  2 O  py               126     30.686502  3 O  px         


 center of mass
 --------------
 x =  -0.00062109 y =   0.00077397 z =  -0.04445929

 moments of inertia (a.u.)
 ------------------
         357.496080274842           0.000300865292          -0.004390355674
           0.000300865292         357.497791165028           0.004635835934
          -0.004390355674           0.004635835934         357.505785239599

     Multipole analysis of the density
     ---------------------------------

     L   x y z        total         alpha         beta         nuclear
     -   - - -        -----         -----         ----         -------
     0   0 0 0     -0.000000    -24.000000    -24.000000     48.000000

     1   1 0 0      0.047383      0.038598      0.038598     -0.029812
     1   0 1 0     -0.186738     -0.111944     -0.111944      0.037150
     1   0 0 1     -1.002990      0.565528      0.565528     -2.134046

     2   2 0 0    -24.535589    -56.970462    -56.970462     89.405335
     2   1 1 0     -0.053477     -0.026651     -0.026651     -0.000174
     2   1 0 1     -0.085098     -0.044310     -0.044310      0.003521
     2   0 2 0    -25.084451    -57.244470    -57.244470     89.404489
     2   0 1 1      0.182764      0.093367      0.093367     -0.003970
     2   0 0 2    -28.162843    -58.829091    -58.829091     89.495340

 ------------------------------------------------------------------------
 dft energy failed                                                                                  0
 ------------------------------------------------------------------------
 ------------------------------------------------------------------------
  current input line : 
    31: task dft energy
 ------------------------------------------------------------------------
 ------------------------------------------------------------------------
 This type of error is most commonly associated with calculations not reaching convergence criteria
 ------------------------------------------------------------------------
 For more information see the NWChem manual at https://nwchemgit.github.io


 For further details see manual section:                                                                                                                                                                                                                                                                
