 argument  1 = m1e/mol.nwi
                                         
                                         


             Northwest Computational Chemistry Package (NWChem) 7.2.2
             --------------------------------------------------------


                    Environmental Molecular Sciences Laboratory
                       Pacific Northwest National Laboratory
                                Richland, WA 99352

                              Copyright (c) 1994-2022
                       Pacific Northwest National Laboratory
                            Battelle Memorial Institute

             NWChem is an open-source computational chemistry package
                        distributed under the terms of the
                      Educational Community License (ECL) 2.0
             A copy of the license is included with this distribution
                              in the LICENSE.TXT file

                                  ACKNOWLEDGMENT
                                  --------------

            This software and its documentation were developed at the
            EMSL at Pacific Northwest National Laboratory, a multiprogram
            national laboratory, operated for the U.S. Department of Energy
            by Battelle under Contract Number DE-AC05-76RL01830. Support
            for this work was provided by the Department of Energy Office
            of Biological and Environmental Research, Office of Basic
            Energy Sciences, and the Office of Advanced Scientific Computing.


           Job information
           ---------------

    hostname        = r366.ib.bridges2.psc.edu
    program         = nwchem
    date            = Tue Oct  1 14:17:28 2024

    compiled        = Mon_Mar_18_17:03:37_2024
    source          = /ocean/projects/pscstaff/mmadrid/nwchem-7.2.2
    nwchem branch   = 7.2.2
    nwchem revision = 74936fb9
    ga revision     = 5.8.0
    use scalapack   = F
    input           = m1e/mol.nwi
    prefix          = dft.
    data base       = .//dft.db
    status          = startup
    nproc           =       15
    time left       =     -1s



           Memory information
           ------------------

    heap     =   67108860 doubles =    512.0 Mbytes
    stack    =   67108865 doubles =    512.0 Mbytes
    global   =  134217728 doubles =   1024.0 Mbytes (distinct from heap & stack)
    total    =  268435453 doubles =   2048.0 Mbytes
    verify   = yes
    hardfail = no 


           Directory information
           ---------------------

  0 permanent = ./
  0 scratch   = /jet/home/hmt47/nwchem_scratch/




                                NWChem Input Module
                                -------------------


  library name resolved from: environment
  library file name is: </opt/packages/nwchem/nwchem7.2.2/share/nwchem/libraries/>
  


 Summary of "ao basis" -> "" (cartesian)
 ------------------------------------------------------------------------------
       Tag                 Description            Shells   Functions and Types
 ---------------- ------------------------------  ------  ---------------------
 *                        aug-cc-pVTZ                 on all atoms 


  pbe96 is a nonlocal functional; adding pw91lda local functional. 

 Scaling coordinates for geometry "geometry" by  1.889725989
 (inverse scale =  0.529177249)



                             Geometry "geometry" -> ""
                             -------------------------

 Output coordinates in angstroms (scale by  1.889725989 to convert to a.u.)

  No.       Tag          Charge          X              Y              Z
 ---- ---------------- ---------- -------------- -------------- --------------
    1 C                    6.0000     0.00147964    -0.00056247    -0.00221744
    2 O                    8.0000    -0.02132101     0.00899898     1.31415367
    3 O                    8.0000     0.58202992     0.98268641    -0.65773541
    4 O                    8.0000    -0.55625555    -0.99334191    -0.66312482

      Atomic Mass 
      ----------- 

      C                 12.000000
      O                 15.994910


 Effective nuclear repulsion energy (a.u.)     102.4302865506

            Nuclear Dipole moment (a.u.) 
            ----------------------------
        X                 Y               Z
 ---------------- ---------------- ----------------
     0.0841017260    -0.0314204362    -0.1265306098


            XYZ format geometry
            -------------------
     4
 geometry
 C                     0.00147964    -0.00056247    -0.00221744
 O                    -0.02132101     0.00899898     1.31415367
 O                     0.58202992     0.98268641    -0.65773541
 O                    -0.55625555    -0.99334191    -0.66312482

 ==============================================================================
                                internuclear distances
 ------------------------------------------------------------------------------
       center one      |      center two      | atomic units |  angstroms
 ------------------------------------------------------------------------------
    2 O                |   1 C                |     2.48802  |     1.31660
    3 O                |   1 C                |     2.48807  |     1.31663
    4 O                |   1 C                |     2.48804  |     1.31662
 ------------------------------------------------------------------------------
                         number of included internuclear distances:          3
 ==============================================================================



 ==============================================================================
                                 internuclear angles
 ------------------------------------------------------------------------------
        center 1       |       center 2       |       center 3       |  degrees
 ------------------------------------------------------------------------------
    2 O                |   1 C                |   3 O                |   120.00
    2 O                |   1 C                |   4 O                |   120.00
    3 O                |   1 C                |   4 O                |   120.00
 ------------------------------------------------------------------------------
                            number of included internuclear angles:          3
 ==============================================================================




                                 NWChem DFT Module
                                 -----------------


                      Basis "ao basis" -> "ao basis" (cartesian)
                      -----
  C (Carbon)
  ----------
            Exponent  Coefficients 
       -------------- ---------------------------------------------------------
  1 S  8.23600000E+03  0.000531
  1 S  1.23500000E+03  0.004108
  1 S  2.80800000E+02  0.021087
  1 S  7.92700000E+01  0.081853
  1 S  2.55900000E+01  0.234817
  1 S  8.99700000E+00  0.434401
  1 S  3.31900000E+00  0.346129
  1 S  3.64300000E-01 -0.008983

  2 S  8.23600000E+03 -0.000113
  2 S  1.23500000E+03 -0.000878
  2 S  2.80800000E+02 -0.004540
  2 S  7.92700000E+01 -0.018133
  2 S  2.55900000E+01 -0.055760
  2 S  8.99700000E+00 -0.126895
  2 S  3.31900000E+00 -0.170352
  2 S  3.64300000E-01  0.598684

  3 S  9.05900000E-01  1.000000

  4 S  1.28500000E-01  1.000000

  5 S  4.40200000E-02  1.000000

  6 P  1.87100000E+01  0.014031
  6 P  4.13300000E+00  0.086866
  6 P  1.20000000E+00  0.290216

  7 P  3.82700000E-01  1.000000

  8 P  1.20900000E-01  1.000000

  9 P  3.56900000E-02  1.000000

 10 D  1.09700000E+00  1.000000

 11 D  3.18000000E-01  1.000000

 12 D  1.00000000E-01  1.000000

 13 F  7.61000000E-01  1.000000

 14 F  2.68000000E-01  1.000000

  O (Oxygen)
  ----------
            Exponent  Coefficients 
       -------------- ---------------------------------------------------------
  1 S  1.53300000E+04  0.000508
  1 S  2.29900000E+03  0.003929
  1 S  5.22400000E+02  0.020243
  1 S  1.47300000E+02  0.079181
  1 S  4.75500000E+01  0.230687
  1 S  1.67600000E+01  0.433118
  1 S  6.20700000E+00  0.350260
  1 S  6.88200000E-01 -0.008154

  2 S  1.53300000E+04 -0.000115
  2 S  2.29900000E+03 -0.000895
  2 S  5.22400000E+02 -0.004636
  2 S  1.47300000E+02 -0.018724
  2 S  4.75500000E+01 -0.058463
  2 S  1.67600000E+01 -0.136463
  2 S  6.20700000E+00 -0.175740
  2 S  6.88200000E-01  0.603418

  3 S  1.75200000E+00  1.000000

  4 S  2.38400000E-01  1.000000

  5 S  7.37600000E-02  1.000000

  6 P  3.44600000E+01  0.015928
  6 P  7.74900000E+00  0.099740
  6 P  2.28000000E+00  0.310492

  7 P  7.15600000E-01  1.000000

  8 P  2.14000000E-01  1.000000

  9 P  5.97400000E-02  1.000000

 10 D  2.31400000E+00  1.000000

 11 D  6.45000000E-01  1.000000

 12 D  2.14000000E-01  1.000000

 13 F  1.42800000E+00  1.000000

 14 F  5.00000000E-01  1.000000



 Summary of "ao basis" -> "ao basis" (cartesian)
 ------------------------------------------------------------------------------
       Tag                 Description            Shells   Functions and Types
 ---------------- ------------------------------  ------  ---------------------
 C                        aug-cc-pVTZ               14       55   5s4p3d2f
 O                        aug-cc-pVTZ               14       55   5s4p3d2f




 Summary of "ao basis" -> "ao basis" (cartesian)
 ------------------------------------------------------------------------------
       Tag                 Description            Shells   Functions and Types
 ---------------- ------------------------------  ------  ---------------------
 C                        aug-cc-pVTZ               14       55   5s4p3d2f
 O                        aug-cc-pVTZ               14       55   5s4p3d2f


  Caching 1-el integrals 

            General Information
            -------------------
          SCF calculation type: DFT
          Wavefunction type:  spin polarized.
          No. of atoms     :     4
          No. of electrons :    31
           Alpha electrons :    16
            Beta electrons :    15
          Charge           :    -1
          Spin multiplicity:     2
          Use of symmetry is: off; symmetry adaption is: off
          Maximum number of iterations: 100
          AO basis - number of functions:   220
                     number of shells:    56
          Convergence on energy requested:  1.00D-06
          Convergence on density requested:  1.00D-05
          Convergence on gradient requested:  5.00D-04

              XC Information
              --------------
          PerdewBurkeErnzerhof Exchange Functional  1.000          
            Perdew 1991 LDA Correlation Functional  1.000 local    
           PerdewBurkeErnz. Correlation Functional  1.000 non-local

             Grid Information
             ----------------
          Grid used for XC integration:  medium    
          Radial quadrature: Mura-Knowles        
          Angular quadrature: Lebedev. 
          Tag              B.-S. Rad. Rad. Pts. Rad. Cut. Ang. Pts.
          ---              ---------- --------- --------- ---------
          C                   0.70       49          10.0       434
          O                   0.60       49          10.0       434
          Grid pruning is: on 
          Number of quadrature shells:   196
          Spatial weights used:  Erf1

          Convergence Information
          -----------------------
          Convergence aids based upon iterative change in 
          total energy or number of iterations. 
          Levelshifting, if invoked, occurs when the 
          HOMO/LUMO gap drops below (HL_TOL):  1.00D-02
          DIIS, if invoked, will attempt to extrapolate 
          using up to (NFOCK): 10 stored Fock matrices.

                    Damping(40%)  Levelshifting(0.0)       DIIS
                  --------------- ------------------- ---------------
          dE  on:    start            0.00D+00            start   
          dE off:  100 iters          0.00D+00          100 iters 


      Screening Tolerance Information
      -------------------------------
          Density screening/tol_rho:  1.00D-10
          AO Gaussian exp screening on grid/accAOfunc:  14
          CD Gaussian exp screening on grid/accCDfunc:  20
          XC Gaussian exp screening on grid/accXCfunc:  20
          Schwarz screening/accCoul:  1.00D-08


 Forcing the number of linearly dependent vectors to be  0

      Superposition of Atomic Density Guess
      -------------------------------------

 Sum of atomic energies:        -262.01444809
   Time after variat. SCF:      0.7
   Time prior to 1st pass:      0.7

 Grid_pts file          = /jet/home/hmt47/nwchem_scratch//dft.gridpts.00
 Record size in doubles =  12289        No. of grid_pts per rec  =   3070
 Max. records in memory =      4        Max. recs in file   =  67550051

 Grid integrated density:      30.000000926700
 Requested integration accuracy:   0.10E-05

           Memory utilization after 1st SCF pass: 
           Heap Space remaining (MW):       33.50            33500964
          Stack Space remaining (MW):       67.11            67106988

   convergence    iter        energy       DeltaE   RMS-Dens  Diis-err    time
 ---------------- ----- ----------------- --------- --------- ---------  ------
 d=40,ls=0.0,diis     1   -263.9641706105 -3.66D+02  4.00D-03  7.29D+00     1.2
                                                     4.08D-03  6.43D+00
 Grid integrated density:      30.600000889285
 Requested integration accuracy:   0.10E-05
 d=40,ls=0.0,diis     2   -263.7845479176  1.80D-01  3.40D-03  1.23D+00     2.8
                                                     3.41D-03  1.09D+00
 Grid integrated density:      30.840000762649
 Requested integration accuracy:   0.10E-05
 d=40,ls=0.0,diis     3   -263.5625663052  2.22D-01  1.03D-03  4.48D-01     4.3
                                                     1.14D-03  3.96D-01
 Grid integrated density:      30.936000818391
 Requested integration accuracy:   0.10E-05
 d=40,ls=0.0,diis     4   -263.6425713219 -8.00D-02  4.67D-04  8.18D-02     5.6
                                                     5.06D-04  7.13D-02
 Grid integrated density:      30.974400821221
 Requested integration accuracy:   0.10E-05
 d=40,ls=0.0,diis     5   -263.6595556372 -1.70D-02  1.82D-04  1.77D-02     7.0
                                                     1.90D-04  1.54D-02
 Grid integrated density:      30.989760869486
 Requested integration accuracy:   0.10E-05
  Resetting Diis
 d=40,ls=0.0,diis     6   -263.6648750119 -5.32D-03  9.01D-05  3.68D-03     8.4
                                                     9.64D-05  3.18D-03
 Grid integrated density:      30.995904873815
 Requested integration accuracy:   0.10E-05
 d=40,ls=0.0,diis     7   -263.6665241062 -1.65D-03  1.10D-04  7.21D-04     9.8
                                                     1.60D-04  6.30D-04
 Grid integrated density:      30.998362477191
 Requested integration accuracy:   0.10E-05
 d=40,ls=0.0,diis     8   -263.6664929255  3.12D-05  5.46D-05  1.19D-03    11.2
                                                     1.51D-04  1.24D-03
 Grid integrated density:      30.999345518946
 Requested integration accuracy:   0.10E-05
 d=40,ls=0.0,diis     9   -263.6669864603 -4.94D-04  2.61D-05  4.51D-04    12.8
                                                     4.49D-05  4.62D-04
 Grid integrated density:      30.999738732348
 Requested integration accuracy:   0.10E-05
 d=40,ls=0.0,diis    10   -263.6672830619 -2.97D-04  1.29D-05  4.25D-05    14.2
                                                     1.64D-05  4.42D-05
 Grid integrated density:      30.999896018693
 Requested integration accuracy:   0.10E-05
 d=40,ls=0.0,diis    11   -263.6673624583 -7.94D-05  4.87D-06  9.26D-06    15.6
                                                     1.07D-05  1.01D-05
 Grid integrated density:      30.999958933022
 Requested integration accuracy:   0.10E-05
 d=40,ls=0.0,diis    12   -263.6673924989 -3.00D-05  1.81D-06  3.56D-06    17.0
                                                     3.75D-06  3.86D-06
 d=40,ls=0.0,diis    13   -263.6674053215 -1.28D-05  6.96D-07  5.07D-07    18.4
                                                     1.40D-06  5.62D-07
 d=40,ls=0.0,diis    14   -263.6674101865 -4.86D-06  3.02D-07  8.40D-08    19.7
                                                     6.15D-07  9.52D-08
 d=40,ls=0.0,diis    15   -263.6674120990 -1.91D-06  1.20D-07  1.31D-08    21.2
                                                     2.49D-07  1.52D-08
 d=40,ls=0.0,diis    16   -263.6674128580 -7.59D-07  5.04D-08  2.13D-09    22.8
                                                     1.04D-07  2.47D-09


         Total DFT energy =     -263.667412858015
      One electron energy =     -572.653438701170
           Coulomb energy =      237.537858011769
    Exchange-Corr. energy =      -30.982118719188
 Nuclear repulsion energy =      102.430286550573

 Numeric. integr. density =       30.999999801920

     Total iterative time =     22.1s



                    DFT Final Alpha Molecular Orbital Analysis
                    ------------------------------------------

 Vector    1  Occ=1.000000D+00  E=-1.855913D+01
              MO Center=  1.1D-01,  1.8D-01, -2.4D-01, r^2= 1.7D+00
   Bfn.  Coefficient  Atom+Function         Bfn.  Coefficient  Atom+Function  
  ----- ------------  ---------------      ----- ------------  ---------------
   111      0.680703  3 O  s                166      0.537299  4 O  s          
    56      0.454128  2 O  s                113      0.043782  3 O  s          
   168      0.034401  4 O  s                 58      0.028960  2 O  s          

 Vector    2  Occ=1.000000D+00  E=-1.855912D+01
              MO Center=  2.9D-02,  2.7D-02, -5.4D-01, r^2= 1.5D+00
   Bfn.  Coefficient  Atom+Function         Bfn.  Coefficient  Atom+Function  
  ----- ------------  ---------------      ----- ------------  ---------------
   111      0.680988  3 O  s                166     -0.658279  4 O  s          
    56     -0.242602  2 O  s                114     -0.048088  3 O  s          
   113      0.044649  3 O  s                168     -0.042966  4 O  s          
   169      0.041025  4 O  s                 13     -0.026977  1 C  py         

 Vector    3  Occ=1.000000D+00  E=-1.855912D+01
              MO Center= -1.3D-01, -2.1D-01,  7.7D-01, r^2= 1.1D+00
   Bfn.  Coefficient  Atom+Function         Bfn.  Coefficient  Atom+Function  
  ----- ------------  ---------------      ----- ------------  ---------------
    56      0.831638  2 O  s                166     -0.484446  4 O  s          
   111     -0.172069  3 O  s                 58      0.054328  2 O  s          
    59     -0.053127  2 O  s                169      0.034447  4 O  s          
   168     -0.031771  4 O  s                 14     -0.031207  1 C  pz         

 Vector    4  Occ=1.000000D+00  E=-9.823435D+00
              MO Center=  1.5D-03, -5.6D-04, -2.2D-03, r^2= 2.8D-02
   Bfn.  Coefficient  Atom+Function         Bfn.  Coefficient  Atom+Function  
  ----- ------------  ---------------      ----- ------------  ---------------
     1      1.009428  1 C  s                  2      0.078122  1 C  s          
     3      0.061379  1 C  s                 59     -0.043179  2 O  s          
   114     -0.043152  3 O  s                169     -0.043164  4 O  s          
     4      0.037014  1 C  s          

 Vector    5  Occ=1.000000D+00  E=-7.874285D-01
              MO Center=  1.5D-03, -5.8D-04, -2.2D-03, r^2= 1.3D+00
   Bfn.  Coefficient  Atom+Function         Bfn.  Coefficient  Atom+Function  
  ----- ------------  ---------------      ----- ------------  ---------------
     2      0.271539  1 C  s                 57      0.234920  2 O  s          
   112      0.234901  3 O  s                167      0.234912  4 O  s          
    59      0.115714  2 O  s                114      0.115703  3 O  s          
   169      0.115709  4 O  s                  4      0.087762  1 C  s          
     3      0.077810  1 C  s                 58      0.066875  2 O  s          

 Vector    6  Occ=1.000000D+00  E=-6.802159D-01
              MO Center= -1.4D-01, -2.3D-01,  4.2D-01, r^2= 1.4D+00
   Bfn.  Coefficient  Atom+Function         Bfn.  Coefficient  Atom+Function  
  ----- ------------  ---------------      ----- ------------  ---------------
    57      0.383663  2 O  s                 59      0.289360  2 O  s          
   167     -0.287123  4 O  s                169     -0.216547  4 O  s          
     8      0.136834  1 C  pz                58      0.107066  2 O  s          
   112     -0.096557  3 O  s                168     -0.080126  4 O  s          
   114     -0.072827  3 O  s                 11      0.067584  1 C  pz         

 Vector    7  Occ=1.000000D+00  E=-6.802086D-01
              MO Center=  1.4D-01,  2.2D-01, -4.2D-01, r^2= 1.4D+00
   Bfn.  Coefficient  Atom+Function         Bfn.  Coefficient  Atom+Function  
  ----- ------------  ---------------      ----- ------------  ---------------
   112      0.387289  3 O  s                114      0.292091  3 O  s          
   167     -0.277250  4 O  s                169     -0.209103  4 O  s          
     7      0.118219  1 C  py                57     -0.110017  2 O  s          
   113      0.108080  3 O  s                 59     -0.082972  2 O  s          
   168     -0.077371  4 O  s                  6      0.068943  1 C  px         

 Vector    8  Occ=1.000000D+00  E=-2.691342D-01
              MO Center=  1.5D-03, -5.6D-04, -2.2D-03, r^2= 2.5D+00
   Bfn.  Coefficient  Atom+Function         Bfn.  Coefficient  Atom+Function  
  ----- ------------  ---------------      ----- ------------  ---------------
     2      0.304379  1 C  s                  4      0.244158  1 C  s          
    59     -0.198137  2 O  s                114     -0.198151  3 O  s          
   169     -0.198144  4 O  s                 57     -0.182521  2 O  s          
   112     -0.182516  3 O  s                167     -0.182519  4 O  s          
    63     -0.149014  2 O  pz                66     -0.143837  2 O  pz         

 Vector    9  Occ=1.000000D+00  E=-2.063584D-01
              MO Center=  1.5D-01,  2.4D-01, -2.8D-01, r^2= 2.2D+00
   Bfn.  Coefficient  Atom+Function         Bfn.  Coefficient  Atom+Function  
  ----- ------------  ---------------      ----- ------------  ---------------
     7      0.165001  1 C  py               112     -0.158544  3 O  s          
   117     -0.157101  3 O  py               173     -0.156241  4 O  pz         
   176     -0.152785  4 O  pz               114     -0.148533  3 O  s          
   120     -0.147097  3 O  py               118      0.124007  3 O  pz         
   121      0.117480  3 O  pz                10      0.112402  1 C  py         

 Vector   10  Occ=1.000000D+00  E=-2.063581D-01
              MO Center= -1.5D-01, -2.4D-01,  2.8D-01, r^2= 2.2D+00
   Bfn.  Coefficient  Atom+Function         Bfn.  Coefficient  Atom+Function  
  ----- ------------  ---------------      ----- ------------  ---------------
    63     -0.204808  2 O  pz                66     -0.192400  2 O  pz         
     8      0.191238  1 C  pz               172     -0.166413  4 O  py         
   175     -0.158605  4 O  py                57     -0.147611  2 O  s          
    59     -0.138279  2 O  s                 69     -0.132567  2 O  pz         
    11      0.130270  1 C  pz               167      0.127007  4 O  s          

 Vector   11  Occ=1.000000D+00  E=-1.893599D-01
              MO Center=  1.5D-03, -5.7D-04, -2.2D-03, r^2= 1.7D+00
   Bfn.  Coefficient  Atom+Function         Bfn.  Coefficient  Atom+Function  
  ----- ------------  ---------------      ----- ------------  ---------------
     6      0.199649  1 C  px                 9      0.164960  1 C  px         
    61      0.138020  2 O  px               116      0.138011  3 O  px         
   171      0.138016  4 O  px                64      0.136024  2 O  px         
   119      0.136016  3 O  px               174      0.136020  4 O  px         
     7     -0.115019  1 C  py                10     -0.095038  1 C  py         

 Vector   12  Occ=1.000000D+00  E=-8.036026D-02
              MO Center=  1.0D-01,  1.6D-01, -3.2D-01, r^2= 2.3D+00
   Bfn.  Coefficient  Atom+Function         Bfn.  Coefficient  Atom+Function  
  ----- ------------  ---------------      ----- ------------  ---------------
   121      0.250502  3 O  pz               118      0.248244  3 O  pz         
   176      0.224717  4 O  pz               173      0.222984  4 O  pz         
   124      0.171430  3 O  pz                63      0.157069  2 O  pz         
    66      0.157452  2 O  pz               179      0.146379  4 O  pz         
   120      0.085961  3 O  py               117      0.084917  3 O  py         

 Vector   13  Occ=1.000000D+00  E=-8.035533D-02
              MO Center= -1.0D-01, -1.7D-01,  3.2D-01, r^2= 2.3D+00
   Bfn.  Coefficient  Atom+Function         Bfn.  Coefficient  Atom+Function  
  ----- ------------  ---------------      ----- ------------  ---------------
    65      0.228669  2 O  py                62      0.226481  2 O  py         
   175      0.169750  4 O  py               172      0.168742  4 O  py         
    68      0.160009  2 O  py               117      0.147698  3 O  py         
   120      0.148277  3 O  py                64      0.132658  2 O  px         
    61      0.131395  2 O  px               176     -0.111367  4 O  pz         

 Vector   14  Occ=1.000000D+00  E=-5.253216D-02
              MO Center= -1.8D-01, -2.9D-01,  5.3D-01, r^2= 2.0D+00
   Bfn.  Coefficient  Atom+Function         Bfn.  Coefficient  Atom+Function  
  ----- ------------  ---------------      ----- ------------  ---------------
    61      0.263832  2 O  px                64      0.265061  2 O  px         
   171     -0.199140  4 O  px               174     -0.200069  4 O  px         
    67      0.190303  2 O  px                62     -0.151995  2 O  py         
    65     -0.152704  2 O  py               177     -0.143643  4 O  px         
   172      0.114726  4 O  py               175      0.115262  4 O  py         

 Vector   15  Occ=1.000000D+00  E=-5.253026D-02
              MO Center=  1.8D-01,  2.9D-01, -5.3D-01, r^2= 2.0D+00
   Bfn.  Coefficient  Atom+Function         Bfn.  Coefficient  Atom+Function  
  ----- ------------  ---------------      ----- ------------  ---------------
   116      0.267301  3 O  px               119      0.268547  3 O  px         
   122      0.192807  3 O  px               171     -0.189674  4 O  px         
   174     -0.190558  4 O  px               117     -0.153993  3 O  py         
   120     -0.154711  3 O  py               177     -0.136812  4 O  px         
   123     -0.111076  3 O  py               172      0.109273  4 O  py         

 Vector   16  Occ=1.000000D+00  E=-3.002219D-02
              MO Center=  1.5D-03, -5.5D-04, -2.2D-03, r^2= 2.4D+00
   Bfn.  Coefficient  Atom+Function         Bfn.  Coefficient  Atom+Function  
  ----- ------------  ---------------      ----- ------------  ---------------
    65      0.212421  2 O  py               121     -0.212561  3 O  pz         
   176      0.211979  4 O  pz                62      0.209314  2 O  py         
   118     -0.209445  3 O  pz               173      0.208875  4 O  pz         
    68      0.157529  2 O  py               124     -0.157626  3 O  pz         
   179      0.157201  4 O  pz                64      0.122364  2 O  px         

 Vector   17  Occ=0.000000D+00  E= 1.451633D-01
              MO Center=  1.5D-03, -5.6D-04, -2.2D-03, r^2= 1.4D+01
   Bfn.  Coefficient  Atom+Function         Bfn.  Coefficient  Atom+Function  
  ----- ------------  ---------------      ----- ------------  ---------------
     5      5.782212  1 C  s                  4      5.745479  1 C  s          
    60     -4.517417  2 O  s                115     -4.517116  3 O  s          
   170     -4.517256  4 O  s                 35      1.693722  1 C  dzz        
    33      1.486458  1 C  dyy               72      1.155869  2 O  pz         
    30      1.068877  1 C  dxx              181     -0.871711  4 O  py         

 Vector   18  Occ=0.000000D+00  E= 1.652112D-01
              MO Center=  8.8D-02,  1.5D-01, -1.1D-01, r^2= 1.7D+01
   Bfn.  Coefficient  Atom+Function         Bfn.  Coefficient  Atom+Function  
  ----- ------------  ---------------      ----- ------------  ---------------
   115      3.279276  3 O  s                 16     -2.023196  1 C  py         
   170     -1.690519  4 O  s                 60     -1.588642  2 O  s          
    17      1.293012  1 C  pz                15     -1.193359  1 C  px         
    13     -1.008802  1 C  py                14      0.644727  1 C  pz         
    12     -0.595041  1 C  px               182     -0.511148  4 O  pz         

 Vector   19  Occ=0.000000D+00  E= 1.652113D-01
              MO Center= -8.5D-02, -1.5D-01,  1.0D-01, r^2= 1.7D+01
   Bfn.  Coefficient  Atom+Function         Bfn.  Coefficient  Atom+Function  
  ----- ------------  ---------------      ----- ------------  ---------------
    60      2.869314  2 O  s                170     -2.810565  4 O  s          
    17     -2.348382  1 C  pz                14     -1.170989  1 C  pz         
    16     -1.142421  1 C  py                15     -0.607645  1 C  px         
    13     -0.569651  1 C  py               127      0.484492  3 O  pz         
    55      0.389876  1 C  fzzz              53      0.376979  1 C  fyyz       

 Vector   20  Occ=0.000000D+00  E= 1.710915D-01
              MO Center=  1.5D-03, -5.7D-04, -2.2D-03, r^2= 1.5D+01
   Bfn.  Coefficient  Atom+Function         Bfn.  Coefficient  Atom+Function  
  ----- ------------  ---------------      ----- ------------  ---------------
    15      1.966587  1 C  px                16     -1.132943  1 C  py         
    70     -0.497455  2 O  px               125     -0.497433  3 O  px         
   180     -0.497445  4 O  px                71      0.286585  2 O  py         
   126      0.286576  3 O  py               181      0.286590  4 O  py         
    12     -0.212199  1 C  px                67      0.140331  2 O  px         

 Vector   21  Occ=0.000000D+00  E= 2.094929D-01
              MO Center=  1.5D-03, -5.7D-04, -2.2D-03, r^2= 2.3D+00
   Bfn.  Coefficient  Atom+Function         Bfn.  Coefficient  Atom+Function  
  ----- ------------  ---------------      ----- ------------  ---------------
    12      0.691650  1 C  px                15      0.691078  1 C  px         
    13     -0.398467  1 C  py                16     -0.398135  1 C  py         
    70     -0.377398  2 O  px               125     -0.377376  3 O  px         
   180     -0.377380  4 O  px                 9      0.314267  1 C  px         
     6      0.298555  1 C  px                71      0.217421  2 O  py         

 Vector   22  Occ=0.000000D+00  E= 2.389290D-01
              MO Center=  1.3D-03, -7.8D-04, -2.0D-03, r^2= 1.4D+01
   Bfn.  Coefficient  Atom+Function         Bfn.  Coefficient  Atom+Function  
  ----- ------------  ---------------      ----- ------------  ---------------
     4     10.319163  1 C  s                 60     -6.144256  2 O  s          
   115     -6.143509  3 O  s                170     -6.143850  4 O  s          
    35      5.169879  1 C  dzz               33      4.817384  1 C  dyy        
    30      4.106972  1 C  dxx               72      2.670550  2 O  pz         
   181     -2.013922  4 O  py               126      1.994361  3 O  py         

 Vector   23  Occ=0.000000D+00  E= 2.408648D-01
              MO Center=  5.0D-02,  8.0D-02, -8.8D-02, r^2= 1.4D+01
   Bfn.  Coefficient  Atom+Function         Bfn.  Coefficient  Atom+Function  
  ----- ------------  ---------------      ----- ------------  ---------------
    34      2.012759  1 C  dyz              182      1.194776  4 O  pz         
    32      1.137356  1 C  dxz              126      1.129518  3 O  py         
   114     -1.093125  3 O  s                179      1.096402  4 O  pz         
    13      1.062409  1 C  py               127     -0.883309  3 O  pz         
    68     -0.851201  2 O  py                71     -0.827695  2 O  py         

 Vector   24  Occ=0.000000D+00  E= 2.408653D-01
              MO Center= -4.7D-02, -8.1D-02,  8.3D-02, r^2= 1.4D+01
   Bfn.  Coefficient  Atom+Function         Bfn.  Coefficient  Atom+Function  
  ----- ------------  ---------------      ----- ------------  ---------------
    72      1.451312  2 O  pz                14      1.231422  1 C  pz         
   181      1.227725  4 O  py                35     -1.155975  1 C  dzz        
    69      1.080462  2 O  pz                59     -1.006246  2 O  s          
    31      0.990887  1 C  dxy              178      0.988859  4 O  py         
    11      0.927619  1 C  pz               169      0.887238  4 O  s          

 Vector   25  Occ=0.000000D+00  E= 2.622601D-01
              MO Center= -2.5D-01, -4.0D-01,  8.3D-01, r^2= 1.2D+01
   Bfn.  Coefficient  Atom+Function         Bfn.  Coefficient  Atom+Function  
  ----- ------------  ---------------      ----- ------------  ---------------
    70      1.684248  2 O  px                32     -1.218078  1 C  dxz        
   180     -1.222487  4 O  px                71     -0.970309  2 O  py         
   181      0.704274  4 O  py                34      0.693966  1 C  dyz        
   125     -0.461797  3 O  px                87     -0.381342  2 O  dxz        
    26     -0.281990  1 C  dxz              126      0.266033  3 O  py         

 Vector   26  Occ=0.000000D+00  E= 2.622612D-01
              MO Center=  2.5D-01,  4.0D-01, -8.4D-01, r^2= 1.2D+01
   Bfn.  Coefficient  Atom+Function         Bfn.  Coefficient  Atom+Function  
  ----- ------------  ---------------      ----- ------------  ---------------
   125      1.678176  3 O  px               180     -1.239005  4 O  px         
   126     -0.966827  3 O  py               181      0.713791  4 O  py         
    31     -0.697686  1 C  dxy               30     -0.611713  1 C  dxx        
    33      0.604959  1 C  dyy               70     -0.439182  2 O  px         
    32      0.300623  1 C  dxz               71      0.253005  2 O  py         

 Vector   27  Occ=0.000000D+00  E= 3.128305D-01
              MO Center= -3.8D-02, -7.6D-02, -1.8D-01, r^2= 1.6D+01
   Bfn.  Coefficient  Atom+Function         Bfn.  Coefficient  Atom+Function  
  ----- ------------  ---------------      ----- ------------  ---------------
    60      5.213600  2 O  s                 17      5.053904  1 C  pz         
    72     -4.519205  2 O  pz               127     -4.005195  3 O  pz         
   182     -3.853385  4 O  pz                14     -3.697783  1 C  pz         
   115     -3.627436  3 O  s                 35     -2.104362  1 C  dzz        
    31      1.830042  1 C  dxy              170     -1.584460  4 O  s          

 Vector   28  Occ=0.000000D+00  E= 3.128315D-01
              MO Center=  4.1D-02,  7.4D-02,  1.8D-01, r^2= 1.6D+01
   Bfn.  Coefficient  Atom+Function         Bfn.  Coefficient  Atom+Function  
  ----- ------------  ---------------      ----- ------------  ---------------
   170      5.104547  4 O  s                 16     -4.390715  1 C  py         
   115     -3.924312  3 O  s                181      3.823319  4 O  py         
   126      3.684772  3 O  py                34     -3.638213  1 C  dyz        
    71      3.245315  2 O  py                13      3.212115  1 C  py         
    15     -2.504607  1 C  px               180      2.175914  4 O  px         

 Vector   29  Occ=0.000000D+00  E= 3.160067D-01
              MO Center=  1.7D-03, -2.1D-04, -2.8D-03, r^2= 1.3D+01
   Bfn.  Coefficient  Atom+Function         Bfn.  Coefficient  Atom+Function  
  ----- ------------  ---------------      ----- ------------  ---------------
    71      1.875397  2 O  py               127     -1.878334  3 O  pz         
   182      1.871599  4 O  pz                70      1.080334  2 O  px         
   126     -0.952951  3 O  py               181     -0.925823  4 O  py         
    54     -0.714725  1 C  fyzz             180     -0.573622  4 O  px         
   125     -0.508612  3 O  px                51     -0.411637  1 C  fxzz       

 Vector   30  Occ=0.000000D+00  E= 3.167866D-01
              MO Center=  1.5D-03, -6.4D-04, -2.2D-03, r^2= 1.0D+01
   Bfn.  Coefficient  Atom+Function         Bfn.  Coefficient  Atom+Function  
  ----- ------------  ---------------      ----- ------------  ---------------
     5      8.852597  1 C  s                  4      7.593545  1 C  s          
    60     -6.384239  2 O  s                115     -6.384145  3 O  s          
   170     -6.384031  4 O  s                 31      1.355799  1 C  dxy        
    35      1.188397  1 C  dzz               69      0.857720  2 O  pz         
    59     -0.814292  2 O  s                114     -0.814286  3 O  s          

 Vector   31  Occ=0.000000D+00  E= 3.268862D-01
              MO Center=  1.5D-03, -5.5D-04, -2.2D-03, r^2= 1.3D+01
   Bfn.  Coefficient  Atom+Function         Bfn.  Coefficient  Atom+Function  
  ----- ------------  ---------------      ----- ------------  ---------------
    15      2.962153  1 C  px                70     -1.740774  2 O  px         
   125     -1.740697  3 O  px               180     -1.740727  4 O  px         
    16     -1.706445  1 C  py                12      1.499766  1 C  px         
    71      1.002818  2 O  py               126      1.002760  3 O  py         
   181      1.002791  4 O  py                13     -0.864085  1 C  py         

 Vector   32  Occ=0.000000D+00  E= 3.696442D-01
              MO Center=  6.9D-04, -1.9D-03, -1.4D-04, r^2= 8.5D+00
   Bfn.  Coefficient  Atom+Function         Bfn.  Coefficient  Atom+Function  
  ----- ------------  ---------------      ----- ------------  ---------------
    60      8.080842  2 O  s                115      8.057218  3 O  s          
   170      8.071218  4 O  s                 30     -5.311508  1 C  dxx        
    33     -4.670381  1 C  dyy               35     -4.355352  1 C  dzz        
    72     -2.206453  2 O  pz                 5     -2.063513  1 C  s          
    69      1.679314  2 O  pz                59     -1.669247  2 O  s          

 Vector   33  Occ=0.000000D+00  E= 3.705196D-01
              MO Center=  8.9D-02,  1.7D-01,  3.7D-01, r^2= 1.2D+01
   Bfn.  Coefficient  Atom+Function         Bfn.  Coefficient  Atom+Function  
  ----- ------------  ---------------      ----- ------------  ---------------
    60     10.690371  2 O  s                115     -7.550054  3 O  s          
    14     -5.597332  1 C  pz               170     -3.167706  4 O  s          
    72     -2.869707  2 O  pz                55      1.783994  1 C  fzzz       
    53      1.707406  1 C  fyyz              11      1.612822  1 C  pz         
    48      1.561509  1 C  fxxz             127     -1.509416  3 O  pz         

 Vector   34  Occ=0.000000D+00  E= 3.705199D-01
              MO Center= -8.5D-02, -1.7D-01, -3.8D-01, r^2= 1.2D+01
   Bfn.  Coefficient  Atom+Function         Bfn.  Coefficient  Atom+Function  
  ----- ------------  ---------------      ----- ------------  ---------------
   170     10.527229  4 O  s                115     -8.004873  3 O  s          
    13      4.863157  1 C  py                12      2.772925  1 C  px         
    60     -2.534018  2 O  s                 34     -2.477234  1 C  dyz        
   181      2.228869  4 O  py               126      1.844257  3 O  py         
    54     -1.550750  1 C  fyzz              47     -1.483040  1 C  fxxy       

 Vector   35  Occ=0.000000D+00  E= 4.683041D-01
              MO Center= -9.4D-02, -1.5D-01,  3.1D-01, r^2= 6.6D+00
   Bfn.  Coefficient  Atom+Function         Bfn.  Coefficient  Atom+Function  
  ----- ------------  ---------------      ----- ------------  ---------------
    31      2.181714  1 C  dxy               30      1.906465  1 C  dxx        
    33     -1.899540  1 C  dyy              122     -1.537629  3 O  px         
   125     -1.205836  3 O  px               177      1.128031  4 O  px         
    32     -0.960175  1 C  dxz              123      0.887648  3 O  py         
   180      0.885021  4 O  px               126      0.692248  3 O  py         

 Vector   36  Occ=0.000000D+00  E= 4.683088D-01
              MO Center=  9.7D-02,  1.5D-01, -3.2D-01, r^2= 6.6D+00
   Bfn.  Coefficient  Atom+Function         Bfn.  Coefficient  Atom+Function  
  ----- ------------  ---------------      ----- ------------  ---------------
    32      3.810106  1 C  dxz               34     -2.170238  1 C  dyz        
    67     -1.540004  2 O  px                70     -1.205962  2 O  px         
   177      1.124462  4 O  px                68      0.887232  2 O  py         
   180      0.881171  4 O  px                87      0.722909  2 O  dxz        
    71      0.694777  2 O  py                31      0.650451  1 C  dxy        

 Vector   37  Occ=0.000000D+00  E= 4.686025D-01
              MO Center=  1.5D-03, -5.2D-04, -2.3D-03, r^2= 5.7D+00
   Bfn.  Coefficient  Atom+Function         Bfn.  Coefficient  Atom+Function  
  ----- ------------  ---------------      ----- ------------  ---------------
    35      5.667984  1 C  dzz               33      5.633683  1 C  dyy        
    30      5.576112  1 C  dxx               60     -4.959924  2 O  s          
   115     -4.959031  3 O  s                170     -4.959490  4 O  s          
     5     -3.070453  1 C  s                 72      1.873284  2 O  pz         
    59      1.784133  2 O  s                114      1.783605  3 O  s          

 Vector   38  Occ=0.000000D+00  E= 5.138924D-01
              MO Center=  1.4D-03, -6.7D-04, -2.1D-03, r^2= 8.8D+00
   Bfn.  Coefficient  Atom+Function         Bfn.  Coefficient  Atom+Function  
  ----- ------------  ---------------      ----- ------------  ---------------
     4     25.376019  1 C  s                 60    -12.117516  2 O  s          
   115    -12.116461  3 O  s                170    -12.116846  4 O  s          
    35      8.506231  1 C  dzz               33      7.188384  1 C  dyy        
     5      5.426107  1 C  s                 31      4.580721  1 C  dxy        
    30      4.532349  1 C  dxx               69      2.563429  2 O  pz         

 Vector   39  Occ=0.000000D+00  E= 5.179161D-01
              MO Center=  1.5D-03, -5.6D-04, -2.2D-03, r^2= 6.5D+00
   Bfn.  Coefficient  Atom+Function         Bfn.  Coefficient  Atom+Function  
  ----- ------------  ---------------      ----- ------------  ---------------
    12      4.732414  1 C  px                13     -2.726441  1 C  py         
    46     -1.108766  1 C  fxxx              49     -1.107984  1 C  fxyy       
    51     -0.929660  1 C  fxzz              70     -0.902457  2 O  px         
   125     -0.902439  3 O  px               180     -0.902443  4 O  px         
    47      0.845461  1 C  fxxy              15      0.712812  1 C  px         

 Vector   40  Occ=0.000000D+00  E= 5.326230D-01
              MO Center= -7.8D-02, -1.3D-01,  1.6D-01, r^2= 7.8D+00
   Bfn.  Coefficient  Atom+Function         Bfn.  Coefficient  Atom+Function  
  ----- ------------  ---------------      ----- ------------  ---------------
    34      7.125566  1 C  dyz               32      4.033183  1 C  dxz        
   179      2.657813  4 O  pz                68     -2.375743  2 O  py         
   115      1.917953  3 O  s                 71     -1.701371  2 O  py         
    35      1.672068  1 C  dzz               54      1.601466  1 C  fyzz       
    10      1.570399  1 C  py                31     -1.523005  1 C  dxy        

 Vector   41  Occ=0.000000D+00  E= 5.326287D-01
              MO Center=  8.1D-02,  1.3D-01, -1.6D-01, r^2= 7.8D+00
   Bfn.  Coefficient  Atom+Function         Bfn.  Coefficient  Atom+Function  
  ----- ------------  ---------------      ----- ------------  ---------------
    35      4.093680  1 C  dzz               31     -3.512476  1 C  dxy        
    33     -3.101341  1 C  dyy               34     -2.821101  1 C  dyz        
   124      2.384895  3 O  pz               178     -2.024668  4 O  py         
    69     -1.947019  2 O  pz                55     -1.861868  1 C  fzzz       
    11     -1.820202  1 C  pz               127      1.815353  3 O  pz         

 Vector   42  Occ=0.000000D+00  E= 5.682541D-01
              MO Center= -3.5D-03, -8.7D-03,  1.2D-02, r^2= 3.6D+00
   Bfn.  Coefficient  Atom+Function         Bfn.  Coefficient  Atom+Function  
  ----- ------------  ---------------      ----- ------------  ---------------
    34      3.741337  1 C  dyz               32      2.127423  1 C  dxz        
   115     -1.842171  3 O  s                114      1.512136  3 O  s          
   170      1.301822  4 O  s                 68     -1.067940  2 O  py         
   169     -1.069170  4 O  s                 71     -0.812443  2 O  py         
   179      0.795387  4 O  pz                16      0.783506  1 C  py         

 Vector   43  Occ=0.000000D+00  E= 5.682729D-01
              MO Center=  6.5D-03,  7.6D-03, -1.7D-02, r^2= 3.6D+00
   Bfn.  Coefficient  Atom+Function         Bfn.  Coefficient  Atom+Function  
  ----- ------------  ---------------      ----- ------------  ---------------
    35      2.150804  1 C  dzz               31     -1.849209  1 C  dxy        
    60      1.815164  2 O  s                 33     -1.625056  1 C  dyy        
    59     -1.490792  2 O  s                170     -1.375430  4 O  s          
   169      1.129054  4 O  s                 34     -1.087033  1 C  dyz        
   124      1.087564  3 O  pz                17     -0.906767  1 C  pz         

 Vector   44  Occ=0.000000D+00  E= 6.400157D-01
              MO Center=  1.1D-01,  1.9D-01,  1.8D-01, r^2= 7.2D+00
   Bfn.  Coefficient  Atom+Function         Bfn.  Coefficient  Atom+Function  
  ----- ------------  ---------------      ----- ------------  ---------------
    14     15.481547  1 C  pz                60    -10.050054  2 O  s          
   115      9.090277  3 O  s                 13     -6.161946  1 C  py         
    59     -5.241786  2 O  s                114      4.741650  3 O  s          
    35      4.000204  1 C  dzz               12     -3.882857  1 C  px         
    31     -3.497242  1 C  dxy               72      3.484877  2 O  pz         

 Vector   45  Occ=0.000000D+00  E= 6.400172D-01
              MO Center= -1.1D-01, -1.9D-01, -1.9D-01, r^2= 7.2D+00
   Bfn.  Coefficient  Atom+Function         Bfn.  Coefficient  Atom+Function  
  ----- ------------  ---------------      ----- ------------  ---------------
    13     13.484297  1 C  py               170     11.050782  4 O  s          
    12      7.611907  1 C  px                14      7.276843  1 C  pz         
    34     -6.899127  1 C  dyz              115     -6.355808  3 O  s          
   169      5.763777  4 O  s                 60     -4.694734  2 O  s          
    32     -4.054005  1 C  dxz              114     -3.315363  3 O  s          

 Vector   46  Occ=0.000000D+00  E= 7.341920D-01
              MO Center= -2.5D-01, -4.1D-01,  6.9D-01, r^2= 6.2D+00
   Bfn.  Coefficient  Atom+Function         Bfn.  Coefficient  Atom+Function  
  ----- ------------  ---------------      ----- ------------  ---------------
    32      1.777487  1 C  dxz               87      1.453448  2 O  dxz        
    70     -1.118092  2 O  px                34     -1.010433  1 C  dyz        
   180      0.860896  4 O  px                89     -0.843091  2 O  dyz        
    26      0.813349  1 C  dxz              196      0.714525  4 O  dxy        
    71      0.644140  2 O  py               106     -0.625767  2 O  fxzz       

 Vector   47  Occ=0.000000D+00  E= 7.341968D-01
              MO Center=  2.5D-01,  4.1D-01, -7.0D-01, r^2= 6.2D+00
   Bfn.  Coefficient  Atom+Function         Bfn.  Coefficient  Atom+Function  
  ----- ------------  ---------------      ----- ------------  ---------------
   125      1.142583  3 O  px                31     -1.015914  1 C  dxy        
   197     -1.011553  4 O  dxz               30     -0.893476  1 C  dxx        
    33      0.881996  1 C  dyy              142      0.873660  3 O  dxz        
   180     -0.794041  4 O  px               141     -0.682681  3 O  dxy        
   126     -0.658202  3 O  py               140     -0.617217  3 O  dxx        

 Vector   48  Occ=0.000000D+00  E= 7.405954D-01
              MO Center=  1.5D-03, -5.2D-04, -2.3D-03, r^2= 6.6D+00
   Bfn.  Coefficient  Atom+Function         Bfn.  Coefficient  Atom+Function  
  ----- ------------  ---------------      ----- ------------  ---------------
     4     13.805419  1 C  s                 60      7.856284  2 O  s          
   115      7.856391  3 O  s                170      7.856120  4 O  s          
    30     -6.035051  1 C  dxx               33     -5.044337  1 C  dyy        
    35     -4.552675  1 C  dzz               69      4.471513  2 O  pz         
    50      4.353623  1 C  fxyz              53      3.777735  1 C  fyyz       

 Vector   49  Occ=0.000000D+00  E= 7.665296D-01
              MO Center=  1.7D-02,  2.3D-02, -1.1D-01, r^2= 6.1D+00
   Bfn.  Coefficient  Atom+Function         Bfn.  Coefficient  Atom+Function  
  ----- ------------  ---------------      ----- ------------  ---------------
    55      3.805851  1 C  fzzz              59     -3.700349  2 O  s          
    53      3.338853  1 C  fyyz              60      3.025777  2 O  s          
    11      2.881723  1 C  pz                69      2.715029  2 O  pz         
    48      2.382874  1 C  fxxz             169      2.275082  4 O  s          
   178      2.064212  4 O  py               170     -1.860308  4 O  s          

 Vector   50  Occ=0.000000D+00  E= 7.665351D-01
              MO Center= -1.4D-02, -2.4D-02,  1.0D-01, r^2= 6.1D+00
   Bfn.  Coefficient  Atom+Function         Bfn.  Coefficient  Atom+Function  
  ----- ------------  ---------------      ----- ------------  ---------------
   114     -3.448996  3 O  s                 54      3.288465  1 C  fyzz       
    49      3.088207  1 C  fxyy             169      2.958399  4 O  s          
    47      2.885259  1 C  fxxy              52      2.885991  1 C  fyyy       
    89      2.887538  2 O  dyz              115      2.821369  3 O  s          
    34      2.693860  1 C  dyz               10      2.493766  1 C  py         

 Vector   51  Occ=0.000000D+00  E= 7.841047D-01
              MO Center=  1.4D-03, -6.6D-04, -2.2D-03, r^2= 8.0D+00
   Bfn.  Coefficient  Atom+Function         Bfn.  Coefficient  Atom+Function  
  ----- ------------  ---------------      ----- ------------  ---------------
    54      3.502437  1 C  fyzz              89      2.042033  2 O  dyz        
    51      2.017143  1 C  fxzz              49     -1.515850  1 C  fxyy       
    71     -1.274378  2 O  py               127      1.275090  3 O  pz         
   182     -1.271690  4 O  pz                87      1.176183  2 O  dxz        
   199     -1.031591  4 O  dyz              200     -1.022999  4 O  dzz        

 Vector   52  Occ=0.000000D+00  E= 8.283490D-01
              MO Center=  1.5D-03, -5.8D-04, -2.2D-03, r^2= 7.6D+00
   Bfn.  Coefficient  Atom+Function         Bfn.  Coefficient  Atom+Function  
  ----- ------------  ---------------      ----- ------------  ---------------
    15      1.626383  1 C  px                87      1.579563  2 O  dxz        
    51      1.391538  1 C  fxzz              70     -1.165945  2 O  px         
   125     -1.165912  3 O  px               180     -1.165913  4 O  px         
    12      1.059925  1 C  px                 9      0.988625  1 C  px         
    16     -0.936957  1 C  py                89     -0.910094  2 O  dyz        

 Vector   53  Occ=0.000000D+00  E= 8.325492D-01
              MO Center=  8.6D-02,  1.7D-01,  6.4D-01, r^2= 8.5D+00
   Bfn.  Coefficient  Atom+Function         Bfn.  Coefficient  Atom+Function  
  ----- ------------  ---------------      ----- ------------  ---------------
    60      7.988666  2 O  s                 59     -7.191700  2 O  s          
    11      6.779865  1 C  pz                14     -5.802411  1 C  pz         
    69      5.627674  2 O  pz                55      5.517102  1 C  fzzz       
    53      5.341311  1 C  fyyz              48      4.994309  1 C  fxxz       
   115     -5.001633  3 O  s                 90     -4.920901  2 O  dzz        

 Vector   54  Occ=0.000000D+00  E= 8.325511D-01
              MO Center= -8.3D-02, -1.7D-01, -6.4D-01, r^2= 8.5D+00
   Bfn.  Coefficient  Atom+Function         Bfn.  Coefficient  Atom+Function  
  ----- ------------  ---------------      ----- ------------  ---------------
   170      7.500140  4 O  s                169     -6.750494  4 O  s          
   115     -6.336489  3 O  s                 10     -5.884358  1 C  py         
   114      5.702567  3 O  s                 13      5.036763  1 C  py         
    54     -4.790286  1 C  fyzz              47     -4.633344  1 C  fxxy       
    52     -4.637247  1 C  fyyy             178     -3.734771  4 O  py         

 Vector   55  Occ=0.000000D+00  E= 8.450627D-01
              MO Center=  1.4D-03, -7.0D-04, -1.9D-03, r^2= 7.1D+00
   Bfn.  Coefficient  Atom+Function         Bfn.  Coefficient  Atom+Function  
  ----- ------------  ---------------      ----- ------------  ---------------
     5      6.179660  1 C  s                 35     -4.900482  1 C  dzz        
    33     -4.696167  1 C  dyy               30     -4.284349  1 C  dxx        
     4      4.212837  1 C  s                 59     -3.169037  2 O  s          
   114     -3.169416  3 O  s                169     -3.169299  4 O  s          
    50     -2.237156  1 C  fxyz              53     -1.941662  1 C  fyyz       

 Vector   56  Occ=0.000000D+00  E= 8.618072D-01
              MO Center=  9.7D-04, -1.4D-03, -9.8D-04, r^2= 4.8D+00
   Bfn.  Coefficient  Atom+Function         Bfn.  Coefficient  Atom+Function  
  ----- ------------  ---------------      ----- ------------  ---------------
   142      1.026985  3 O  dxz              197     -1.014044  4 O  dxz        
    86     -0.683717  2 O  dxy              199      0.598858  4 O  dyz        
    85     -0.589451  2 O  dxx               88      0.589532  2 O  dyy        
   144     -0.577116  3 O  dyz              141      0.358095  3 O  dxy        
   196      0.323042  4 O  dxy              195      0.311414  4 O  dxx        

 Vector   57  Occ=0.000000D+00  E= 8.642671D-01
              MO Center=  4.7D-02,  7.3D-02, -1.7D-01, r^2= 5.6D+00
   Bfn.  Coefficient  Atom+Function         Bfn.  Coefficient  Atom+Function  
  ----- ------------  ---------------      ----- ------------  ---------------
    32      2.381823  1 C  dxz              142     -1.807349  3 O  dxz        
   197     -1.694418  4 O  dxz               87     -1.378046  2 O  dxz        
    34     -1.357934  1 C  dyz               51     -1.043481  1 C  fxzz       
   144      1.026877  3 O  dyz              199      0.972544  4 O  dyz        
    89      0.782658  2 O  dyz               26     -0.761732  1 C  dxz        

 Vector   58  Occ=0.000000D+00  E= 8.642725D-01
              MO Center= -4.4D-02, -7.3D-02,  1.6D-01, r^2= 5.6D+00
   Bfn.  Coefficient  Atom+Function         Bfn.  Coefficient  Atom+Function  
  ----- ------------  ---------------      ----- ------------  ---------------
    31      1.365327  1 C  dxy               50      1.219905  1 C  fxyz       
    30      1.195834  1 C  dxx               33     -1.183604  1 C  dyy        
    86     -1.077482  2 O  dxy               53     -1.054847  1 C  fyyz       
    48      1.037890  1 C  fxxz              85     -0.939792  2 O  dxx        
    88      0.932676  2 O  dyy              196     -0.886683  4 O  dxy        

 Vector   59  Occ=0.000000D+00  E= 9.094765D-01
              MO Center=  7.5D-02,  1.1D-01, -3.3D-01, r^2= 6.2D+00
   Bfn.  Coefficient  Atom+Function         Bfn.  Coefficient  Atom+Function  
  ----- ------------  ---------------      ----- ------------  ---------------
    59      4.767899  2 O  s                 11     -4.301228  1 C  pz         
    14      3.660614  1 C  pz                69     -3.626498  2 O  pz         
   169     -3.199274  4 O  s                 55     -3.046397  1 C  fzzz       
    53     -2.948700  1 C  fyyz              48     -2.742826  1 C  fxxz       
   179     -2.713515  4 O  pz               124     -2.476055  3 O  pz         

 Vector   60  Occ=0.000000D+00  E= 9.094807D-01
              MO Center= -7.2D-02, -1.2D-01,  3.3D-01, r^2= 6.2D+00
   Bfn.  Coefficient  Atom+Function         Bfn.  Coefficient  Atom+Function  
  ----- ------------  ---------------      ----- ------------  ---------------
   114      4.600327  3 O  s                 10     -3.719428  1 C  py         
   169     -3.658357  4 O  s                 13      3.166058  1 C  py         
   123     -2.937327  3 O  py               178     -2.742291  4 O  py         
    54     -2.633462  1 C  fyzz              34      2.602092  1 C  dyz        
   144     -2.588051  3 O  dyz               47     -2.548052  1 C  fxxy       

 Vector   61  Occ=0.000000D+00  E= 9.164422D-01
              MO Center=  1.4D-03, -6.5D-04, -2.1D-03, r^2= 6.8D+00
   Bfn.  Coefficient  Atom+Function         Bfn.  Coefficient  Atom+Function  
  ----- ------------  ---------------      ----- ------------  ---------------
    60     13.394843  2 O  s                115     13.393991  3 O  s          
   170     13.394527  4 O  s                 35    -11.762661  1 C  dzz        
    33    -10.477237  1 C  dyy               30     -7.885505  1 C  dxx        
     4     -6.060691  1 C  s                 31     -4.469504  1 C  dxy        
    50     -3.458043  1 C  fxyz              59     -3.163964  2 O  s          

 Vector   62  Occ=0.000000D+00  E= 9.324137D-01
              MO Center= -2.7D-02, -4.7D-02,  8.5D-02, r^2= 3.9D+00
   Bfn.  Coefficient  Atom+Function         Bfn.  Coefficient  Atom+Function  
  ----- ------------  ---------------      ----- ------------  ---------------
   122      3.234271  3 O  px               177     -2.320450  4 O  px         
    31     -1.917066  1 C  dxy              123     -1.863278  3 O  py         
    30     -1.683627  1 C  dxx               33      1.662654  1 C  dyy        
    50      1.336322  1 C  fxyz             178      1.336723  4 O  py         
    53     -1.156134  1 C  fyyz              48      1.134493  1 C  fxxz       

 Vector   63  Occ=0.000000D+00  E= 9.324206D-01
              MO Center=  3.0D-02,  4.6D-02, -8.9D-02, r^2= 3.9D+00
   Bfn.  Coefficient  Atom+Function         Bfn.  Coefficient  Atom+Function  
  ----- ------------  ---------------      ----- ------------  ---------------
    32      3.350237  1 C  dxz               67     -3.207066  2 O  px         
   177      2.394968  4 O  px                34     -1.906715  1 C  dyz        
    68      1.847637  2 O  py                87      1.813505  2 O  dxz        
   178     -1.379733  4 O  py                51      1.141057  1 C  fxzz       
    89     -1.045493  2 O  dyz               47     -0.826793  1 C  fxxy       

 Vector   64  Occ=0.000000D+00  E= 1.000549D+00
              MO Center=  1.5D-03, -5.6D-04, -2.2D-03, r^2= 4.9D+00
   Bfn.  Coefficient  Atom+Function         Bfn.  Coefficient  Atom+Function  
  ----- ------------  ---------------      ----- ------------  ---------------
    67     -3.838707  2 O  px               122     -3.838500  3 O  px         
   177     -3.838607  4 O  px                12      3.685221  1 C  px         
    87      3.217358  2 O  dxz               51      2.970647  1 C  fxzz       
     9      2.330050  1 C  px                68      2.211609  2 O  py         
   123      2.211149  3 O  py               178      2.211420  4 O  py         

 Vector   65  Occ=0.000000D+00  E= 1.019467D+00
              MO Center=  1.5D-03, -5.5D-04, -2.2D-03, r^2= 6.1D+00
   Bfn.  Coefficient  Atom+Function         Bfn.  Coefficient  Atom+Function  
  ----- ------------  ---------------      ----- ------------  ---------------
     4     29.848383  1 C  s                 60     -9.141598  2 O  s          
   115     -9.141311  3 O  s                170     -9.141459  4 O  s          
    35      6.761007  1 C  dzz               33      5.491683  1 C  dyy        
    69      5.061838  2 O  pz                59     -4.619450  2 O  s          
   114     -4.620894  3 O  s                169     -4.620146  4 O  s          

 Vector   66  Occ=0.000000D+00  E= 1.066841D+00
              MO Center=  1.4D-01,  2.3D-01, -2.7D-01, r^2= 5.9D+00
   Bfn.  Coefficient  Atom+Function         Bfn.  Coefficient  Atom+Function  
  ----- ------------  ---------------      ----- ------------  ---------------
    13     11.303123  1 C  py                34    -10.768651  1 C  dyz        
    12      6.629244  1 C  px                32     -6.090732  1 C  dxz        
    14     -5.463130  1 C  pz                10     -3.992531  1 C  py         
   141      3.450496  3 O  dxy              115     -3.243647  3 O  s          
    54     -3.137144  1 C  fyzz              47     -3.041013  1 C  fxxy       

 Vector   67  Occ=0.000000D+00  E= 1.066847D+00
              MO Center= -1.4D-01, -2.3D-01,  2.6D-01, r^2= 5.9D+00
   Bfn.  Coefficient  Atom+Function         Bfn.  Coefficient  Atom+Function  
  ----- ------------  ---------------      ----- ------------  ---------------
    14     13.104173  1 C  pz                35      6.184643  1 C  dzz        
    31     -5.304453  1 C  dxy               13      4.857512  1 C  py         
    33     -4.686813  1 C  dyy               11     -4.627882  1 C  pz         
    34     -4.444497  1 C  dyz               69     -3.692748  2 O  pz         
    55     -3.640587  1 C  fzzz              53     -3.525414  1 C  fyyz       

 Vector   68  Occ=0.000000D+00  E= 1.084763D+00
              MO Center=  4.7D-02,  7.8D-02, -5.8D-04, r^2= 5.2D+00
   Bfn.  Coefficient  Atom+Function         Bfn.  Coefficient  Atom+Function  
  ----- ------------  ---------------      ----- ------------  ---------------
   114     10.690185  3 O  s                 14      9.871611  1 C  pz         
    13     -8.371585  1 C  py                59     -7.904369  2 O  s          
   123     -7.522650  3 O  py               179     -6.902383  4 O  pz         
    69      6.665447  2 O  pz                12     -5.035226  1 C  px         
   115      4.600252  3 O  s                122     -4.396192  3 O  px         

 Vector   69  Occ=0.000000D+00  E= 1.084768D+00
              MO Center= -4.4D-02, -7.9D-02, -3.8D-03, r^2= 5.2D+00
   Bfn.  Coefficient  Atom+Function         Bfn.  Coefficient  Atom+Function  
  ----- ------------  ---------------      ----- ------------  ---------------
   169     10.735084  4 O  s                 14      9.763665  1 C  pz         
    13      8.645731  1 C  py                59     -7.781573  2 O  s          
   178      7.549688  4 O  py               124     -6.954810  3 O  pz         
    69      6.539634  2 O  pz                12      4.770913  1 C  px         
   170      4.619298  4 O  s                177      4.283832  4 O  px         

 Vector   70  Occ=0.000000D+00  E= 1.162183D+00
              MO Center=  1.5D-03, -5.6D-04, -2.2D-03, r^2= 3.6D+00
   Bfn.  Coefficient  Atom+Function         Bfn.  Coefficient  Atom+Function  
  ----- ------------  ---------------      ----- ------------  ---------------
    12      3.771212  1 C  px                46     -2.966377  1 C  fxxx       
    49     -2.965918  1 C  fxyy              51     -2.867660  1 C  fxzz       
    13     -2.172675  1 C  py                47      1.823118  1 C  fxxy       
    52      1.671079  1 C  fyyy              54      1.652291  1 C  fyzz       
    67      0.740316  2 O  px                87     -0.741666  2 O  dxz        

 Vector   71  Occ=0.000000D+00  E= 1.174773D+00
              MO Center=  1.5D-03, -5.1D-04, -2.3D-03, r^2= 5.8D+00
   Bfn.  Coefficient  Atom+Function         Bfn.  Coefficient  Atom+Function  
  ----- ------------  ---------------      ----- ------------  ---------------
    54      6.936095  1 C  fyzz              68     -4.527765  2 O  py         
   124      4.531688  3 O  pz                89      4.502520  2 O  dyz        
   179     -4.519274  4 O  pz                51      3.994711  1 C  fxzz       
    49     -3.003047  1 C  fxyy              67     -2.608189  2 O  px         
    87      2.593393  2 O  dxz              123      2.296594  3 O  py         

 Vector   72  Occ=0.000000D+00  E= 1.277174D+00
              MO Center=  5.5D-02,  8.2D-02, -2.7D-01, r^2= 4.6D+00
   Bfn.  Coefficient  Atom+Function         Bfn.  Coefficient  Atom+Function  
  ----- ------------  ---------------      ----- ------------  ---------------
    14     12.078269  1 C  pz                55    -11.514156  1 C  fzzz       
    53    -11.269352  1 C  fyyz              48    -10.764444  1 C  fxxz       
    59      9.301340  2 O  s                 11     -8.622401  1 C  pz         
    60     -8.262950  2 O  s                 69     -7.855282  2 O  pz         
   169     -6.056806  4 O  s                178     -5.561782  4 O  py         

 Vector   73  Occ=0.000000D+00  E= 1.277191D+00
              MO Center= -5.2D-02, -8.3D-02,  2.7D-01, r^2= 4.6D+00
   Bfn.  Coefficient  Atom+Function         Bfn.  Coefficient  Atom+Function  
  ----- ------------  ---------------      ----- ------------  ---------------
    13     10.448617  1 C  py                54     -9.955123  1 C  fyzz       
    47     -9.744039  1 C  fxxy              52     -9.743713  1 C  fyyy       
   114      8.862885  3 O  s                115     -7.877877  3 O  s          
    10     -7.456559  1 C  py               169     -7.239048  4 O  s          
    34     -7.079394  1 C  dyz              170      6.434936  4 O  s          

 Vector   74  Occ=0.000000D+00  E= 1.305141D+00
              MO Center=  1.5D-03, -6.0D-04, -2.1D-03, r^2= 4.6D+00
   Bfn.  Coefficient  Atom+Function         Bfn.  Coefficient  Atom+Function  
  ----- ------------  ---------------      ----- ------------  ---------------
     4     25.176907  1 C  s                 50      9.494677  1 C  fxyz       
    53      8.240043  1 C  fyyz              69      5.696291  2 O  pz         
   178     -4.292930  4 O  py               123      4.250839  3 O  py         
   145     -3.734515  3 O  dzz              200     -3.732222  4 O  dzz        
    29     -3.707134  1 C  dzz               55     -3.655269  1 C  fzzz       

 Vector   75  Occ=0.000000D+00  E= 1.371772D+00
              MO Center=  1.4D-01,  2.6D-01,  4.1D-01, r^2= 4.7D+00
   Bfn.  Coefficient  Atom+Function         Bfn.  Coefficient  Atom+Function  
  ----- ------------  ---------------      ----- ------------  ---------------
    69     26.079024  2 O  pz                59    -22.543687  2 O  s          
   114     17.641937  3 O  s                123    -16.418944  3 O  py         
    11     13.738339  1 C  pz                55     12.756263  1 C  fzzz       
    53     12.376457  1 C  fyyz              90    -11.994105  2 O  dzz        
    48     11.645520  1 C  fxxz             122     -9.627374  3 O  px         

 Vector   76  Occ=0.000000D+00  E= 1.371784D+00
              MO Center= -1.4D-01, -2.6D-01, -4.1D-01, r^2= 4.7D+00
   Bfn.  Coefficient  Atom+Function         Bfn.  Coefficient  Atom+Function  
  ----- ------------  ---------------      ----- ------------  ---------------
   169     23.200656  4 O  s                178     19.886748  4 O  py         
   114    -15.844313  3 O  s                179     14.189444  4 O  pz         
   123     12.381394  3 O  py                10     11.948181  1 C  py         
   124    -11.709420  3 O  pz                54     11.103138  1 C  fyzz       
   177     11.151860  4 O  px                47     10.758001  1 C  fxxy       

 Vector   77  Occ=0.000000D+00  E= 1.384395D+00
              MO Center=  7.4D-03,  8.8D-03, -2.9D-02, r^2= 3.9D+00
   Bfn.  Coefficient  Atom+Function         Bfn.  Coefficient  Atom+Function  
  ----- ------------  ---------------      ----- ------------  ---------------
   122      2.478087  3 O  px                50     -1.994366  1 C  fxyz       
   177     -1.967244  4 O  px               197     -1.853265  4 O  dxz        
    53      1.722602  1 C  fyyz              48     -1.701755  1 C  fxxz       
    25     -1.596079  1 C  dxy               31     -1.585642  1 C  dxy        
   142      1.543896  3 O  dxz              123     -1.425125  3 O  py         

 Vector   78  Occ=0.000000D+00  E= 1.384401D+00
              MO Center= -4.5D-03, -9.9D-03,  2.4D-02, r^2= 3.9D+00
   Bfn.  Coefficient  Atom+Function         Bfn.  Coefficient  Atom+Function  
  ----- ------------  ---------------      ----- ------------  ---------------
    26      2.779120  1 C  dxz               32      2.760891  1 C  dxz        
    67     -2.566256  2 O  px                87      2.249368  2 O  dxz        
   177      1.724248  4 O  px                51     -1.708022  1 C  fxzz       
    28     -1.587628  1 C  dyz               34     -1.577093  1 C  dyz        
    68      1.478257  2 O  py                89     -1.304177  2 O  dyz        

 Vector   79  Occ=0.000000D+00  E= 1.460176D+00
              MO Center=  1.6D-02,  1.9D-02, -1.3D-01, r^2= 4.1D+00
   Bfn.  Coefficient  Atom+Function         Bfn.  Coefficient  Atom+Function  
  ----- ------------  ---------------      ----- ------------  ---------------
    14      6.149750  1 C  pz                50      5.894459  1 C  fxyz       
    69     -5.758704  2 O  pz               179     -5.445352  4 O  pz         
   124     -5.408649  3 O  pz                90      3.827021  2 O  dzz        
   199     -3.310633  4 O  dyz               48     -3.215563  1 C  fxxz       
   144      2.941350  3 O  dyz              145     -1.939115  3 O  dzz        

 Vector   80  Occ=0.000000D+00  E= 1.460181D+00
              MO Center= -1.3D-02, -2.1D-02,  1.3D-01, r^2= 4.1D+00
   Bfn.  Coefficient  Atom+Function         Bfn.  Coefficient  Atom+Function  
  ----- ------------  ---------------      ----- ------------  ---------------
    13      5.324723  1 C  py                49      5.226931  1 C  fxyy       
   123     -4.903017  3 O  py               178     -4.875885  4 O  py         
    68     -4.603427  2 O  py                89      3.615872  2 O  dyz        
    28      3.256580  1 C  dyz               12      3.079329  1 C  px         
   122     -2.839052  3 O  px               177     -2.815267  4 O  px         

 Vector   81  Occ=0.000000D+00  E= 1.492248D+00
              MO Center= -4.2D-02, -7.2D-02,  1.1D-01, r^2= 3.4D+00
   Bfn.  Coefficient  Atom+Function         Bfn.  Coefficient  Atom+Function  
  ----- ------------  ---------------      ----- ------------  ---------------
    26      3.728277  1 C  dxz               51      3.571413  1 C  fxzz       
    47     -2.589427  1 C  fxxy              87      2.559334  2 O  dxz        
    28     -2.116744  1 C  dyz               54     -2.119244  1 C  fyzz       
    67     -1.910616  2 O  px               197      1.645211  4 O  dxz        
    52      1.569877  1 C  fyyy             177      1.519321  4 O  px         

 Vector   82  Occ=0.000000D+00  E= 1.492250D+00
              MO Center=  4.5D-02,  7.1D-02, -1.1D-01, r^2= 3.4D+00
   Bfn.  Coefficient  Atom+Function         Bfn.  Coefficient  Atom+Function  
  ----- ------------  ---------------      ----- ------------  ---------------
    50      4.191987  1 C  fxyz              53     -3.628176  1 C  fyyz       
    48      3.547971  1 C  fxxz              25     -2.128204  1 C  dxy        
   122      1.980510  3 O  px                24     -1.875585  1 C  dxx        
    27      1.848604  1 C  dyy              141     -1.368897  3 O  dxy        
   177     -1.329408  4 O  px                51      1.320940  1 C  fxzz       

 Vector   83  Occ=0.000000D+00  E= 1.542384D+00
              MO Center=  1.5D-03, -5.7D-04, -2.2D-03, r^2= 3.6D+00
   Bfn.  Coefficient  Atom+Function         Bfn.  Coefficient  Atom+Function  
  ----- ------------  ---------------      ----- ------------  ---------------
    51      6.914812  1 C  fxzz              54     -3.983605  1 C  fyzz       
    67     -3.839048  2 O  px               122     -3.838431  3 O  px         
   177     -3.838718  4 O  px                47      3.712008  1 C  fxxy       
    87      3.479005  2 O  dxz               52     -3.134770  1 C  fyyy       
    12      2.954141  1 C  px                 9      2.786262  1 C  px         

 Vector   84  Occ=0.000000D+00  E= 1.560071D+00
              MO Center=  1.5D-03, -5.8D-04, -2.2D-03, r^2= 3.9D+00
   Bfn.  Coefficient  Atom+Function         Bfn.  Coefficient  Atom+Function  
  ----- ------------  ---------------      ----- ------------  ---------------
     4     23.655918  1 C  s                 35     -7.677027  1 C  dzz        
    69      7.564969  2 O  pz                33     -7.430306  1 C  dyy        
    60      7.109098  2 O  s                115      7.108417  3 O  s          
   170      7.108773  4 O  s                 30     -6.933308  1 C  dxx        
   178     -5.705458  4 O  py               123      5.649938  3 O  py         

 Vector   85  Occ=0.000000D+00  E= 1.748274D+00
              MO Center=  1.5D-03, -5.5D-04, -2.2D-03, r^2= 4.5D+00
   Bfn.  Coefficient  Atom+Function         Bfn.  Coefficient  Atom+Function  
  ----- ------------  ---------------      ----- ------------  ---------------
    54     11.068963  1 C  fyzz              51      6.374920  1 C  fxzz       
    49     -4.791154  1 C  fxyy              89      3.066948  2 O  dyz        
    47     -2.756817  1 C  fxxy              52     -2.770473  1 C  fyyy       
    68     -1.890262  2 O  py               124      1.891400  3 O  pz         
   179     -1.885909  4 O  pz                87      1.766517  2 O  dxz        

 Vector   86  Occ=0.000000D+00  E= 1.779596D+00
              MO Center=  1.5D-03, -5.9D-04, -2.2D-03, r^2= 4.7D+00
   Bfn.  Coefficient  Atom+Function         Bfn.  Coefficient  Atom+Function  
  ----- ------------  ---------------      ----- ------------  ---------------
    50     15.992504  1 C  fxyz               4     15.867053  1 C  s          
    53     13.876976  1 C  fyyz              69      9.312862  2 O  pz         
    25     -8.738026  1 C  dxy               59      7.630814  2 O  s          
   114      7.625424  3 O  s                169      7.628473  4 O  s          
   178     -7.023901  4 O  py               123      6.956381  3 O  py         

 Vector   87  Occ=0.000000D+00  E= 1.895236D+00
              MO Center=  2.4D-01,  4.1D-01,  1.0D-01, r^2= 5.0D+00
   Bfn.  Coefficient  Atom+Function         Bfn.  Coefficient  Atom+Function  
  ----- ------------  ---------------      ----- ------------  ---------------
   114     17.178853  3 O  s                 59    -14.335104  2 O  s          
    11     11.247651  1 C  pz                55     10.546220  1 C  fzzz       
    53      9.419546  1 C  fyyz              10     -7.793167  1 C  py         
    48      7.369686  1 C  fxxz              54     -7.227386  1 C  fyzz       
    47     -6.634654  1 C  fxxy              49     -6.569975  1 C  fxyy       

 Vector   88  Occ=0.000000D+00  E= 1.895244D+00
              MO Center= -2.4D-01, -4.2D-01, -1.1D-01, r^2= 5.0D+00
   Bfn.  Coefficient  Atom+Function         Bfn.  Coefficient  Atom+Function  
  ----- ------------  ---------------      ----- ------------  ---------------
   169     18.193971  4 O  s                 59    -11.560781  2 O  s          
    10      9.831545  1 C  py                54      9.284238  1 C  fyzz       
    11      9.114423  1 C  pz                55      8.546311  1 C  fzzz       
    52      8.280687  1 C  fyyy              47      8.203507  1 C  fxxy       
    49      7.865970  1 C  fxyy              53      7.746928  1 C  fyyz       

 Vector   89  Occ=0.000000D+00  E= 1.944726D+00
              MO Center=  2.5D-01,  4.2D-01, -3.5D-01, r^2= 3.6D+00
   Bfn.  Coefficient  Atom+Function         Bfn.  Coefficient  Atom+Function  
  ----- ------------  ---------------      ----- ------------  ---------------
   122      2.401715  3 O  px               161     -1.884911  3 O  fxzz       
   156     -1.449544  3 O  fxxx             159     -1.450678  3 O  fxyy       
   123     -1.383723  3 O  py               177     -1.291149  4 O  px         
   216      1.240082  4 O  fxzz              67     -1.110593  2 O  px         
   164      1.086724  3 O  fyzz             162      0.997777  3 O  fyyy       

 Vector   90  Occ=0.000000D+00  E= 1.944728D+00
              MO Center= -2.5D-01, -4.2D-01,  3.4D-01, r^2= 3.6D+00
   Bfn.  Coefficient  Atom+Function         Bfn.  Coefficient  Atom+Function  
  ----- ------------  ---------------      ----- ------------  ---------------
    67      2.132160  2 O  px               177     -2.027883  4 O  px         
   106     -1.673077  2 O  fxzz             216      1.433882  4 O  fxzz       
   101     -1.288301  2 O  fxxx             104     -1.283665  2 O  fxyy       
   211      1.263832  4 O  fxxx             214      1.262611  4 O  fxyy       
    68     -1.228322  2 O  py               178      1.168189  4 O  py         

 Vector   91  Occ=0.000000D+00  E= 1.990020D+00
              MO Center=  1.5D-03, -5.6D-04, -2.2D-03, r^2= 4.7D+00
   Bfn.  Coefficient  Atom+Function         Bfn.  Coefficient  Atom+Function  
  ----- ------------  ---------------      ----- ------------  ---------------
   106     -1.582295  2 O  fxzz              67      1.462666  2 O  px         
   122      1.462675  3 O  px               177      1.462618  4 O  px         
   161     -1.400989  3 O  fxzz             216     -1.406358  4 O  fxzz       
   156     -0.945610  3 O  fxxx             214     -0.949008  4 O  fxyy       
   159     -0.943694  3 O  fxyy             211     -0.942068  4 O  fxxx       

 Vector   92  Occ=0.000000D+00  E= 2.006186D+00
              MO Center=  1.2D-01,  1.8D-01, -4.6D-01, r^2= 4.1D+00
   Bfn.  Coefficient  Atom+Function         Bfn.  Coefficient  Atom+Function  
  ----- ------------  ---------------      ----- ------------  ---------------
    59     14.063061  2 O  s                 55    -10.353114  1 C  fzzz       
    69    -10.335507  2 O  pz               169     -9.716079  4 O  s          
    53     -9.348740  1 C  fyyz             178     -7.464744  4 O  py         
    48     -7.264088  1 C  fxxz              11     -7.010236  1 C  pz         
   123      5.151230  3 O  py               114     -4.348270  3 O  s          

 Vector   93  Occ=0.000000D+00  E= 2.006208D+00
              MO Center= -1.1D-01, -1.8D-01,  4.5D-01, r^2= 4.1D+00
   Bfn.  Coefficient  Atom+Function         Bfn.  Coefficient  Atom+Function  
  ----- ------------  ---------------      ----- ------------  ---------------
   114     13.728699  3 O  s                169    -10.628973  4 O  s          
    54     -8.934801  1 C  fyzz              47     -8.074622  1 C  fxxy       
    52     -8.069456  1 C  fyyy              49     -7.759512  1 C  fxyy       
   179     -7.771971  4 O  pz               124      6.752667  3 O  pz         
   123     -6.662405  3 O  py                10     -6.061211  1 C  py         

 Vector   94  Occ=0.000000D+00  E= 2.045433D+00
              MO Center= -9.9D-02, -1.6D-01,  4.5D-01, r^2= 3.2D+00
   Bfn.  Coefficient  Atom+Function         Bfn.  Coefficient  Atom+Function  
  ----- ------------  ---------------      ----- ------------  ---------------
   102      1.840409  2 O  fxxy              67      1.207948  2 O  px         
   106     -1.169633  2 O  fxzz              32     -0.886772  1 C  dxz        
[...]
    64     10.192446  2 O  px               174    -10.064903  4 O  px         
    65     -5.871649  2 O  py               175      5.798297  4 O  py         
    91     -5.134700  2 O  fxxx              94     -5.133460  2 O  fxyy       
    96     -5.091979  2 O  fxzz             201      5.066310  4 O  fxxx       
   204      5.064516  4 O  fxyy             206      5.045332  4 O  fxzz       

 Vector  209  Occ=0.000000D+00  E= 1.354258D+01
              MO Center=  3.5D-04, -2.5D-03, -4.5D-04, r^2= 3.3D+00
   Bfn.  Coefficient  Atom+Function         Bfn.  Coefficient  Atom+Function  
  ----- ------------  ---------------      ----- ------------  ---------------
    64      8.287468  2 O  px               119      8.259077  3 O  px         
   174      8.283012  4 O  px                65     -4.775133  2 O  py         
   120     -4.758004  3 O  py               175     -4.771751  4 O  py         
    91     -4.169103  2 O  fxxx              94     -4.169007  2 O  fxyy       
    96     -4.148298  2 O  fxzz             146     -4.155268  3 O  fxxx       

 Vector  210  Occ=0.000000D+00  E= 1.372527D+01
              MO Center=  1.5D-03, -5.5D-04, -2.3D-03, r^2= 3.2D+00
   Bfn.  Coefficient  Atom+Function         Bfn.  Coefficient  Atom+Function  
  ----- ------------  ---------------      ----- ------------  ---------------
    65      8.587762  2 O  py               121     -8.593234  3 O  pz         
   176      8.569772  4 O  pz                64      4.947028  2 O  px         
   120     -4.356561  3 O  py                92     -4.223286  2 O  fxxy       
    97     -4.223317  2 O  fyyy             175     -4.232372  4 O  py         
   148      4.210586  3 O  fxxz             153      4.192517  3 O  fyyz       

 Vector  211  Occ=0.000000D+00  E= 1.381408D+01
              MO Center=  1.5D-03, -5.7D-04, -2.2D-03, r^2= 2.4D+00
   Bfn.  Coefficient  Atom+Function         Bfn.  Coefficient  Atom+Function  
  ----- ------------  ---------------      ----- ------------  ---------------
    50      8.228689  1 C  fxyz              57      7.418205  2 O  s          
   112      7.417558  3 O  s                167      7.417947  4 O  s          
    53      7.140300  1 C  fyyz              59      4.163846  2 O  s          
   114      4.159802  3 O  s                169      4.162092  4 O  s          
    56      3.921261  2 O  s                111      3.920921  3 O  s          

 Vector  212  Occ=0.000000D+00  E= 1.441198D+01
              MO Center= -2.8D-01, -4.9D-01, -1.6D-01, r^2= 2.8D+00
   Bfn.  Coefficient  Atom+Function         Bfn.  Coefficient  Atom+Function  
  ----- ------------  ---------------      ----- ------------  ---------------
   176     11.624002  4 O  pz                65     -7.042966  2 O  py         
   179      6.437181  4 O  pz               203     -5.893712  4 O  fxxz       
   208     -5.894841  4 O  fyyz             210     -5.905150  4 O  fzzz       
   175     -5.639856  4 O  py               121      4.189532  3 O  pz         
   213     -4.090612  4 O  fxxz              64     -4.043120  2 O  px         

 Vector  213  Occ=0.000000D+00  E= 1.441200D+01
              MO Center=  2.8D-01,  4.9D-01,  1.6D-01, r^2= 2.8D+00
   Bfn.  Coefficient  Atom+Function         Bfn.  Coefficient  Atom+Function  
  ----- ------------  ---------------      ----- ------------  ---------------
   121     10.924838  3 O  pz                65      9.325518  2 O  py         
   124      6.043568  3 O  pz               148     -5.500323  3 O  fxxz       
   155     -5.518645  3 O  fzzz             153     -5.490718  3 O  fyyz       
    64      5.382663  2 O  px               120      5.220225  3 O  py         
    68      5.166781  2 O  py                99     -4.769765  2 O  fyzz       

 Vector  214  Occ=0.000000D+00  E= 1.597256D+01
              MO Center=  1.5D-03, -5.5D-04, -2.3D-03, r^2= 3.2D+00
   Bfn.  Coefficient  Atom+Function         Bfn.  Coefficient  Atom+Function  
  ----- ------------  ---------------      ----- ------------  ---------------
     4     20.660175  1 C  s                 66      9.263566  2 O  pz         
   175     -6.987493  4 O  py               120      6.920276  3 O  py         
    69      6.053799  2 O  pz                93     -4.996776  2 O  fxxz       
    98     -4.988934  2 O  fyyz             100     -4.803498  2 O  fzzz       
   176     -4.651044  4 O  pz               121     -4.613509  3 O  pz         

 Vector  215  Occ=0.000000D+00  E= 1.632351D+01
              MO Center=  2.9D-01,  4.9D-01, -3.5D-01, r^2= 2.4D+00
   Bfn.  Coefficient  Atom+Function         Bfn.  Coefficient  Atom+Function  
  ----- ------------  ---------------      ----- ------------  ---------------
   114     12.747334  3 O  s                123    -11.471145  3 O  py         
   120    -10.528442  3 O  py               124      7.667097  3 O  pz         
    69      7.559168  2 O  pz               121      7.024820  3 O  pz         
    66      6.932737  2 O  pz               122     -6.773460  3 O  px         
    13     -6.455405  1 C  py               169     -6.480209  4 O  s          

 Vector  216  Occ=0.000000D+00  E= 1.632356D+01
              MO Center= -2.9D-01, -5.0D-01,  3.4D-01, r^2= 2.4D+00
   Bfn.  Coefficient  Atom+Function         Bfn.  Coefficient  Atom+Function  
  ----- ------------  ---------------      ----- ------------  ---------------
    69     13.381479  2 O  pz                66     12.277562  2 O  pz         
    59    -11.102336  2 O  s                169     10.979042  4 O  s          
   178     10.360210  4 O  py               175      9.267893  4 O  py         
    14      7.494112  1 C  pz                11      6.976654  1 C  pz         
    93     -5.907711  2 O  fxxz              98     -5.886200  2 O  fyyz       

 Vector  217  Occ=0.000000D+00  E= 1.704965D+01
              MO Center=  1.6D-03, -3.5D-04, -2.2D-03, r^2= 2.1D+00
   Bfn.  Coefficient  Atom+Function         Bfn.  Coefficient  Atom+Function  
  ----- ------------  ---------------      ----- ------------  ---------------
    59      6.967572  2 O  s                114      6.968838  3 O  s          
   169      6.966978  4 O  s                  4      6.485233  1 C  s          
    57      4.269154  2 O  s                112      4.269768  3 O  s          
   167      4.268605  4 O  s                 66      3.491500  2 O  pz         
    84     -3.278605  2 O  dzz              137     -3.206267  3 O  dyy        

 Vector  218  Occ=0.000000D+00  E= 1.719345D+01
              MO Center=  2.6D-01,  4.3D-01, -3.4D-01, r^2= 1.7D+00
   Bfn.  Coefficient  Atom+Function         Bfn.  Coefficient  Atom+Function  
  ----- ------------  ---------------      ----- ------------  ---------------
   123      5.710622  3 O  py               114      5.181976  3 O  s          
   120      5.197544  3 O  py                13      4.994194  1 C  py         
   137     -4.608943  3 O  dyy              139     -4.456281  3 O  dzz        
   143     -4.428223  3 O  dyy              134     -4.401028  3 O  dxx        
   112      4.201305  3 O  s                140     -3.952546  3 O  dxx        

 Vector  219  Occ=0.000000D+00  E= 1.719348D+01
              MO Center= -2.5D-01, -4.3D-01,  3.4D-01, r^2= 1.7D+00
   Bfn.  Coefficient  Atom+Function         Bfn.  Coefficient  Atom+Function  
  ----- ------------  ---------------      ----- ------------  ---------------
    69      6.771692  2 O  pz                66      6.160416  2 O  pz         
    14      5.796018  1 C  pz               178      4.895182  4 O  py         
    59      4.587694  2 O  s                 90     -4.485938  2 O  dzz        
   175      4.419351  4 O  py               169     -4.387337  4 O  s          
    84     -4.290747  2 O  dzz              192      3.890181  4 O  dyy        

 Vector  220  Occ=0.000000D+00  E= 2.442209D+01
              MO Center=  1.5D-03, -5.7D-04, -2.2D-03, r^2= 1.9D+00
   Bfn.  Coefficient  Atom+Function         Bfn.  Coefficient  Atom+Function  
  ----- ------------  ---------------      ----- ------------  ---------------
     2     27.785000  1 C  s                  4     16.341129  1 C  s          
     1     13.723530  1 C  s                 59    -12.587985  2 O  s          
   114    -12.581572  3 O  s                169    -12.585175  4 O  s          
    25      6.735731  1 C  dxy               69      6.751166  2 O  pz         
    35     -5.782056  1 C  dzz               33     -5.390663  1 C  dyy        


   alpha - beta orbital overlaps 
   ----------------------------- 


   alpha      1      2      3      4      5      6      7      8      9     10
    beta      1      2      3      4      5      6      7      8     10      9
 overlap   0.998  0.998  0.999  1.000  1.000  1.000  1.000  1.000  0.989  0.989


   alpha     11     12     13     14     15     16     17     18     19     20
    beta     11     12     13     14     15     16     17     19     18     20
 overlap   1.000  0.996  0.996  1.000  1.000  1.000  1.000  0.839  0.839  1.000


   alpha     21     22     23     24     25     26     27     28     29     30
    beta     21     22     23     24     25     26     27     28     29     30
 overlap   1.000  1.000  0.999  0.999  1.000  1.000  0.988  0.988  1.000  1.000


   alpha     31     32     33     34     35     36     37     38     39     40
    beta     31     32     33     34     35     36     37     38     39     40
 overlap   1.000  1.000  0.879  0.879  0.999  0.999  0.999  0.999  1.000  0.999


   alpha     41     42     43     44     45     46     47     48     49     50
    beta     41     42     43     44     45     46     47     48     49     50
 overlap   0.999  0.999  0.999  0.999  0.999  1.000  1.000  1.000  1.000  1.000


   alpha     51     52     53     54     55     56     57     58     59     60
    beta     51     52     53     54     55     58     56     57     59     60
 overlap   1.000  1.000  0.924  0.924  1.000  1.000  1.000  1.000  0.992  0.992


   alpha     61     62     63     64     65     66     67     68     69     70
    beta     61     62     63     64     65     66     67     69     68     70
 overlap   1.000  1.000  1.000  1.000  1.000  0.992  0.992  0.760  0.760  1.000


   alpha     71     72     73     74     75     76     77     78     79     80
    beta     71     72     73     74     75     76     77     78     79     80
 overlap   1.000  0.999  0.999  1.000  0.998  0.998  0.999  0.999  0.993  0.993


   alpha     81     82     83     84     85     86     87     88     89     90
    beta     81     82     83     84     85     86     87     88     89     90
 overlap   0.997  0.997  1.000  1.000  1.000  1.000  1.000  1.000  0.998  0.998


   alpha     91     92     93     94     95     96     97     98     99    100
    beta     91     92     93     94     95     96     98     97    100    101
 overlap   1.000  0.999  0.999  0.998  0.998  1.000  0.998  1.000  0.998  0.998


   alpha    101    102    103    104    105    106    107    108    109    110
    beta     99    102    103    104    105    107    106    108    109    110
 overlap   1.000  0.998  0.998  0.998  0.999  0.730  0.730  0.999  0.991  0.991


   alpha    111    112    113    114    115    116    117    118    119    120
    beta    111    112    113    114    115    116    117    118    119    120
 overlap   1.000  0.998  0.998  1.000  0.995  0.995  1.000  0.998  0.998  1.000


   alpha    121    122    123    124    125    126    127    128    129    130
    beta    121    122    123    124    125    127    126    128    129    130
 overlap   1.000  1.000  0.998  0.998  1.000  0.894  0.894  0.999  0.999  0.999


   alpha    131    132    133    134    135    136    137    138    139    140
    beta    131    132    133    134    135    136    137    138    139    140
 overlap   0.999  0.999  1.000  0.999  1.000  0.999  0.999  1.000  1.000  1.000


   alpha    141    142    143    144    145    146    147    148    149    150
    beta    141    142    143    144    147    148    145    146    149    150
 overlap   1.000  1.000  1.000  1.000  1.000  1.000  0.999  0.999  1.000  1.000


   alpha    151    152    153    154    155    156    157    158    159    160
    beta    151    152    153    154    157    158    155    156    159    160
 overlap   1.000  1.000  1.000  1.000  0.989  0.989  1.000  1.000  0.989  0.989


   alpha    161    162    163    164    165    166    167    168    169    170
    beta    161    162    165    166    167    163    164    168    169    170
 overlap   1.000  1.000  1.000  1.000  1.000  0.993  0.993  1.000  0.992  0.992


   alpha    171    172    173    174    175    176    177    178    179    180
    beta    171    172    173    174    175    176    178    179    177    180
 overlap   1.000  0.998  0.998  1.000  0.983  0.983  1.000  1.000  1.000  1.000


   alpha    181    182    183    184    185    186    187    188    189    190
    beta    181    182    184    183    186    185    187    188    189    190
 overlap   0.998  0.998  0.992  0.992  0.980  0.980  0.999  1.000  1.000  1.000


   alpha    191    192    193    194    195    196    197    198    199    200
    beta    191    192    193    194    195    197    196    198    199    200
 overlap   1.000  1.000  0.999  1.000  0.999  0.867  0.867  1.000  1.000  1.000


   alpha    201    202    203    204    205    206    207    208    209    210
    beta    201    202    203    204    205    206    207    208    209    210
 overlap   1.000  1.000  1.000  1.000  0.999  0.999  1.000  1.000  1.000  1.000


   alpha    211    212    213    214    215    216    217    218    219    220
    beta    211    212    213    214    215    216    217    218    219    220
 overlap   1.000  0.993  0.993  1.000  1.000  1.000  1.000  1.000  1.000  1.000


     --------------------------
     Expectation value of S2:  
     --------------------------
      <S2> =      0.7540 (Exact =     0.7500)


 center of mass
 --------------
 x =   0.00280339 y =  -0.00104735 z =  -0.00421769

 moments of inertia (a.u.)
 ------------------
         259.994509675743         -64.219607228706           2.396932924297
         -64.219607228706         185.519879473868          -1.381383216446
           2.396932924297          -1.381383216446         148.572294284886

     Multipole analysis of the density
     ---------------------------------

     L   x y z        total         alpha         beta         nuclear
     -   - - -        -----         -----         ----         -------
     0   0 0 0     -1.000000    -16.000000    -15.000000     30.000000

     1   1 0 0     -0.002832     -0.044883     -0.042050      0.084102
     1   0 1 0      0.000997      0.016709      0.015708     -0.031420
     1   0 0 1      0.004227      0.067559      0.063199     -0.126531

     2   2 0 0    -19.153422    -19.369202    -18.314766     18.530547
     2   1 1 0     -2.395108    -18.057922    -16.457120     32.119934
     2   1 0 1      0.089440      0.674215      0.614427     -1.199203
     2   0 2 0    -21.930991    -40.310679    -37.399821     55.779509
     2   0 1 1     -0.051468     -0.388444     -0.354067      0.691044
     2   0 0 2    -23.308993    -50.700092    -46.868582     74.259681


 Task  times  cpu:       21.7s     wall:       24.1s


                                NWChem Input Module
                                -------------------


 Summary of allocated global arrays
-----------------------------------
  No active global arrays


MA_summarize_allocated_blocks: starting scan ...
heap block 'gridpts', handle 64, address 0x110a9628:
	type of elements:		double precision
	number of elements:		33554432
	address of client space:	0x110a9680
	index for client space:		11132457
	total number of bytes:		268435552
MA_summarize_allocated_blocks: scan completed: 1 heap block, 0 stack blocks
MA usage statistics:

	allocation statistics:
					      heap	     stack
					      ----	     -----
	current number of blocks	         1	         0
	maximum number of blocks	        21	        53
	current total bytes		 268435552	         0
	maximum total bytes		 268863048	  33152360
	maximum total K-bytes		    268864	     33153
	maximum total M-bytes		       269	        34


                                     CITATION
                                     --------
                Please cite the following reference when publishing
                           results obtained with NWChem:

          E. Apra, E. J. Bylaska, W. A. de Jong, N. Govind, K. Kowalski,
       T. P. Straatsma, M. Valiev, H. J. J. van Dam, Y. Alexeev, J. Anchell,
       V. Anisimov, F. W. Aquino, R. Atta-Fynn, J. Autschbach, N. P. Bauman,
     J. C. Becca, D. E. Bernholdt, K. Bhaskaran-Nair, S. Bogatko, P. Borowski,
         J. Boschen, J. Brabec, A. Bruner, E. Cauet, Y. Chen, G. N. Chuev,
      C. J. Cramer, J. Daily, M. J. O. Deegan, T. H. Dunning Jr., M. Dupuis,
   K. G. Dyall, G. I. Fann, S. A. Fischer, A. Fonari, H. Fruchtl, L. Gagliardi,
      J. Garza, N. Gawande, S. Ghosh, K. Glaesemann, A. W. Gotz, J. Hammond,
       V. Helms, E. D. Hermes, K. Hirao, S. Hirata, M. Jacquelin, L. Jensen,
   B. G. Johnson, H. Jonsson, R. A. Kendall, M. Klemm, R. Kobayashi, V. Konkov,
      S. Krishnamoorthy, M. Krishnan, Z. Lin, R. D. Lins, R. J. Littlefield,
      A. J. Logsdail, K. Lopata, W. Ma, A. V. Marenich, J. Martin del Campo,
   D. Mejia-Rodriguez, J. E. Moore, J. M. Mullin, T. Nakajima, D. R. Nascimento,
    J. A. Nichols, P. J. Nichols, J. Nieplocha, A. Otero-de-la-Roza, B. Palmer,
    A. Panyala, T. Pirojsirikul, B. Peng, R. Peverati, J. Pittner, L. Pollack,
   R. M. Richard, P. Sadayappan, G. C. Schatz, W. A. Shelton, D. W. Silverstein,
   D. M. A. Smith, T. A. Soares, D. Song, M. Swart, H. L. Taylor, G. S. Thomas,
            V. Tipparaju, D. G. Truhlar, K. Tsemekhman, T. Van Voorhis,
      A. Vazquez-Mayagoitia, P. Verma, O. Villa, A. Vishnu, K. D. Vogiatzis,
        D. Wang, J. H. Weare, M. J. Williamson, T. L. Windus, K. Wolinski,
        A. T. Wong, Q. Wu, C. Yang, Q. Yu, M. Zacharias, Z. Zhang, Y. Zhao,
                                and R. J. Harrison
                        "NWChem: Past, present, and future
                         J. Chem. Phys. 152, 184102 (2020)
                               doi:10.1063/5.0004997

                                      AUTHORS
                                      -------
  E. Apra, E. J. Bylaska, N. Govind, K. Kowalski, M. Valiev, D. Mejia-Rodriguez,
       A. Kunitsa, N. P. Bauman, A. Panyala, W. A. de Jong, T. P. Straatsma,
   H. J. J. van Dam, D. Wang, T. L. Windus, J. Hammond, J. Autschbach, A. Woods,
    K. Bhaskaran-Nair, J. Brabec, K. Lopata, S. A. Fischer, S. Krishnamoorthy,
     M. Jacquelin, W. Ma, M. Klemm, O. Villa, Y. Chen, V. Anisimov, F. Aquino,
     S. Hirata, M. T. Hackler, E. Hermes, L. Jensen, J. E. Moore, J. C. Becca,
      V. Konjkov, T. Risthaus, M. Malagoli, A. Marenich, A. Otero-de-la-Roza,
        J. Mullin, P. Nichols, R. Peverati, J. Pittner, Y. Zhao, P.-D. Fan,
        A. Fonari, M. J. Williamson, R. J. Harrison, J. R. Rehr, M. Dupuis,
     D. Silverstein, D. M. A. Smith, J. Nieplocha, V. Tipparaju, M. Krishnan,
     B. E. Van Kuiken, A. Vazquez-Mayagoitia, M. Swart, Q. Wu, T. Van Voorhis,
     A. A. Auer, M. Nooijen, L. D. Crosby, E. Brown, G. Cisneros, G. I. Fann,
   H. Fruchtl, J. Garza, K. Hirao, R. A. Kendall, J. A. Nichols, K. Tsemekhman,
    K. Wolinski, J. Anchell, D. E. Bernholdt, P. Borowski, T. Clark, D. Clerc,
   H. Dachsel, M. J. O. Deegan, K. Dyall, D. Elwood, E. Glendening, M. Gutowski,
   A. C. Hess, J. Jaffe, B. G. Johnson, J. Ju, R. Kobayashi, R. Kutteh, Z. Lin,
   R. Littlefield, X. Long, B. Meng, T. Nakajima, S. Niu, L. Pollack, M. Rosing,
   K. Glaesemann, G. Sandrone, M. Stave, H. Taylor, G. Thomas, J. H. van Lenthe,
                               A. T. Wong, Z. Zhang.

 Total times  cpu:       21.9s     wall:       24.4s
