 argument  1 = proton/mol.nwi
                                         
                                         


             Northwest Computational Chemistry Package (NWChem) 7.2.2
             --------------------------------------------------------


                    Environmental Molecular Sciences Laboratory
                       Pacific Northwest National Laboratory
                                Richland, WA 99352

                              Copyright (c) 1994-2022
                       Pacific Northwest National Laboratory
                            Battelle Memorial Institute

             NWChem is an open-source computational chemistry package
                        distributed under the terms of the
                      Educational Community License (ECL) 2.0
             A copy of the license is included with this distribution
                              in the LICENSE.TXT file

                                  ACKNOWLEDGMENT
                                  --------------

            This software and its documentation were developed at the
            EMSL at Pacific Northwest National Laboratory, a multiprogram
            national laboratory, operated for the U.S. Department of Energy
            by Battelle under Contract Number DE-AC05-76RL01830. Support
            for this work was provided by the Department of Energy Office
            of Biological and Environmental Research, Office of Basic
            Energy Sciences, and the Office of Advanced Scientific Computing.


           Job information
           ---------------

    hostname        = r189.ib.bridges2.psc.edu
    program         = nwchem
    date            = Wed Oct  2 11:02:48 2024

    compiled        = Mon_Mar_18_17:03:37_2024
    source          = /ocean/projects/pscstaff/mmadrid/nwchem-7.2.2
    nwchem branch   = 7.2.2
    nwchem revision = 74936fb9
    ga revision     = 5.8.0
    use scalapack   = F
    input           = proton/mol.nwi
    prefix          = dft.
    data base       = .//dft.db
    status          = startup
    nproc           =       15
    time left       =     -1s



           Memory information
           ------------------

    heap     =   67108858 doubles =    512.0 Mbytes
    stack    =   67108863 doubles =    512.0 Mbytes
    global   =  134217728 doubles =   1024.0 Mbytes (distinct from heap & stack)
    total    =  268435449 doubles =   2048.0 Mbytes
    verify   = yes
    hardfail = no 


           Directory information
           ---------------------

  0 permanent = ./
  0 scratch   = /jet/home/hmt47/nwchem_scratch/




                                NWChem Input Module
                                -------------------


  library name resolved from: environment
  library file name is: </opt/packages/nwchem/nwchem7.2.2/share/nwchem/libraries/>
  


 Summary of "ao basis" -> "" (cartesian)
 ------------------------------------------------------------------------------
       Tag                 Description            Shells   Functions and Types
 ---------------- ------------------------------  ------  ---------------------
 *                        aug-cc-pVTZ                 on all atoms 


  pbe96 is a nonlocal functional; adding pw91lda local functional. 

 Scaling coordinates for geometry "geometry" by  1.889725989
 (inverse scale =  0.529177249)



                             Geometry "geometry" -> ""
                             -------------------------

 Output coordinates in angstroms (scale by  1.889725989 to convert to a.u.)

  No.       Tag          Charge          X              Y              Z
 ---- ---------------- ---------- -------------- -------------- --------------
    1 O                    8.0000     0.00000000     0.00000000     0.00000000
    2 H                    1.0000     0.00000000     0.76323900    -0.59630900
    3 H                    1.0000     0.00000000    -0.76323900    -0.59630900

      Atomic Mass 
      ----------- 

      O                 15.994910
      H                  1.007825


 Effective nuclear repulsion energy (a.u.)       9.0882944231

            Nuclear Dipole moment (a.u.) 
            ----------------------------
        X                 Y               Z
 ---------------- ---------------- ----------------
     0.0000000000     0.0000000000    -2.2537212290


            XYZ format geometry
            -------------------
     3
 geometry
 O                     0.00000000     0.00000000     0.00000000
 H                     0.00000000     0.76323900    -0.59630900
 H                     0.00000000    -0.76323900    -0.59630900

 ==============================================================================
                                internuclear distances
 ------------------------------------------------------------------------------
       center one      |      center two      | atomic units |  angstroms
 ------------------------------------------------------------------------------
    2 H                |   1 O                |     1.83032  |     0.96857
    3 H                |   1 O                |     1.83032  |     0.96857
 ------------------------------------------------------------------------------
                         number of included internuclear distances:          2
 ==============================================================================



 ==============================================================================
                                 internuclear angles
 ------------------------------------------------------------------------------
        center 1       |       center 2       |       center 3       |  degrees
 ------------------------------------------------------------------------------
    2 H                |   1 O                |   3 H                |   104.00
 ------------------------------------------------------------------------------
                            number of included internuclear angles:          1
 ==============================================================================





                           NWChem Geometry Optimization
                           ----------------------------


 maximum gradient threshold         (gmax) =   0.000450
 rms gradient threshold             (grms) =   0.000300
 maximum cartesian step threshold   (xmax) =   0.001800
 rms cartesian step threshold       (xrms) =   0.001200
 fixed trust radius                (trust) =   0.300000
 maximum step size to saddle      (sadstp) =   0.100000
 energy precision                  (eprec) =   5.0D-06
 maximum number of steps          (nptopt) =   40
 initial hessian option           (inhess) =    0
 line search option               (linopt) =    1
 hessian update option            (modupd) =    1
 saddle point option              (modsad) =    0
 initial eigen-mode to follow     (moddir) =    0
 initial variable to follow       (vardir) =    0
 follow first negative mode     (firstneg) =    T
 apply conjugacy                    (opcg) =    F
 source of zmatrix                         =           


          -------------------
          Energy Minimization
          -------------------


 Using old Hessian from previous optimization

          --------
          Step   0
          --------


                         Geometry "geometry" -> "geometry"
                         ---------------------------------

 Output coordinates in angstroms (scale by  1.889725989 to convert to a.u.)

  No.       Tag          Charge          X              Y              Z
 ---- ---------------- ---------- -------------- -------------- --------------
    1 O                    8.0000     0.00000000     0.00000000     0.00000000
    2 H                    1.0000     0.00000000     0.76323900    -0.59630900
    3 H                    1.0000     0.00000000    -0.76323900    -0.59630900

      Atomic Mass 
      ----------- 

      O                 15.994910
      H                  1.007825


 Effective nuclear repulsion energy (a.u.)       9.0882944231

            Nuclear Dipole moment (a.u.) 
            ----------------------------
        X                 Y               Z
 ---------------- ---------------- ----------------
     0.0000000000     0.0000000000    -2.2537212290


                                 NWChem DFT Module
                                 -----------------


                      Basis "ao basis" -> "ao basis" (cartesian)
                      -----
  O (Oxygen)
  ----------
            Exponent  Coefficients 
       -------------- ---------------------------------------------------------
  1 S  1.53300000E+04  0.000508
  1 S  2.29900000E+03  0.003929
  1 S  5.22400000E+02  0.020243
  1 S  1.47300000E+02  0.079181
  1 S  4.75500000E+01  0.230687
  1 S  1.67600000E+01  0.433118
  1 S  6.20700000E+00  0.350260
  1 S  6.88200000E-01 -0.008154

  2 S  1.53300000E+04 -0.000115
  2 S  2.29900000E+03 -0.000895
  2 S  5.22400000E+02 -0.004636
  2 S  1.47300000E+02 -0.018724
  2 S  4.75500000E+01 -0.058463
  2 S  1.67600000E+01 -0.136463
  2 S  6.20700000E+00 -0.175740
  2 S  6.88200000E-01  0.603418

  3 S  1.75200000E+00  1.000000

  4 S  2.38400000E-01  1.000000

  5 S  7.37600000E-02  1.000000

  6 P  3.44600000E+01  0.015928
  6 P  7.74900000E+00  0.099740
  6 P  2.28000000E+00  0.310492

  7 P  7.15600000E-01  1.000000

  8 P  2.14000000E-01  1.000000

  9 P  5.97400000E-02  1.000000

 10 D  2.31400000E+00  1.000000

 11 D  6.45000000E-01  1.000000

 12 D  2.14000000E-01  1.000000

 13 F  1.42800000E+00  1.000000

 14 F  5.00000000E-01  1.000000

  H (Hydrogen)
  ------------
            Exponent  Coefficients 
       -------------- ---------------------------------------------------------
  1 S  3.38700000E+01  0.006068
  1 S  5.09500000E+00  0.045308
  1 S  1.15900000E+00  0.202822

  2 S  3.25800000E-01  1.000000

  3 S  1.02700000E-01  1.000000

  4 S  2.52600000E-02  1.000000

  5 P  1.40700000E+00  1.000000

  6 P  3.88000000E-01  1.000000

  7 P  1.02000000E-01  1.000000

  8 D  1.05700000E+00  1.000000

  9 D  2.47000000E-01  1.000000



 Summary of "ao basis" -> "ao basis" (cartesian)
 ------------------------------------------------------------------------------
       Tag                 Description            Shells   Functions and Types
 ---------------- ------------------------------  ------  ---------------------
 O                        aug-cc-pVTZ               14       55   5s4p3d2f
 H                        aug-cc-pVTZ                9       25   4s3p2d




 Summary of "ao basis" -> "ao basis" (cartesian)
 ------------------------------------------------------------------------------
       Tag                 Description            Shells   Functions and Types
 ---------------- ------------------------------  ------  ---------------------
 O                        aug-cc-pVTZ               14       55   5s4p3d2f
 H                        aug-cc-pVTZ                9       25   4s3p2d


  Caching 1-el integrals 

            General Information
            -------------------
          SCF calculation type: DFT
          Wavefunction type:  closed shell.
          No. of atoms     :     3
          No. of electrons :    10
           Alpha electrons :     5
            Beta electrons :     5
          Charge           :     0
          Spin multiplicity:     1
          Use of symmetry is: off; symmetry adaption is: off
          Maximum number of iterations: 200
          AO basis - number of functions:   105
                     number of shells:    32
          Convergence on energy requested:  1.00D-06
          Convergence on density requested:  1.00D-05
          Convergence on gradient requested:  5.00D-04

              XC Information
              --------------
          PerdewBurkeErnzerhof Exchange Functional  1.000          
            Perdew 1991 LDA Correlation Functional  1.000 local    
           PerdewBurkeErnz. Correlation Functional  1.000 non-local

             Grid Information
             ----------------
          Grid used for XC integration:  medium    
          Radial quadrature: Mura-Knowles        
          Angular quadrature: Lebedev. 
          Tag              B.-S. Rad. Rad. Pts. Rad. Cut. Ang. Pts.
          ---              ---------- --------- --------- ---------
          O                   0.60       49          10.0       434
          H                   0.35       45          12.0       434
          Grid pruning is: on 
          Number of quadrature shells:   139
          Spatial weights used:  Erf1

          Convergence Information
          -----------------------
          Convergence aids based upon iterative change in 
          total energy or number of iterations. 
          Levelshifting, if invoked, occurs when the 
          HOMO/LUMO gap drops below (HL_TOL):  1.00D-02
          DIIS, if invoked, will attempt to extrapolate 
          using up to (NFOCK): 10 stored Fock matrices.

                    Damping(40%)  Levelshifting(0.0)       DIIS
                  --------------- ------------------- ---------------
          dE  on:    start            0.00D+00            start   
          dE off:  200 iters          0.00D+00          200 iters 


      Screening Tolerance Information
      -------------------------------
          Density screening/tol_rho:  1.00D-10
          AO Gaussian exp screening on grid/accAOfunc:  14
          CD Gaussian exp screening on grid/accCDfunc:  20
          XC Gaussian exp screening on grid/accXCfunc:  20
          Schwarz screening/accCoul:  1.00D-08


 Forcing the number of linearly dependent vectors to be  0

      Superposition of Atomic Density Guess
      -------------------------------------

 Sum of atomic energies:         -75.78090571
   Time after variat. SCF:      0.5
   Time prior to 1st pass:      0.5

 Grid_pts file          = /jet/home/hmt47/nwchem_scratch//dft.gridpts.00
 Record size in doubles =  12289        No. of grid_pts per rec  =   3070
 Max. records in memory =      3        Max. recs in file   =  67550051


           Memory utilization after 1st SCF pass: 
           Heap Space remaining (MW):       33.51            33514146
          Stack Space remaining (MW):       67.11            67108204

   convergence    iter        energy       DeltaE   RMS-Dens  Diis-err    time
 ---------------- ----- ----------------- --------- --------- ---------  ------
 d=40,ls=0.0,diis     1    -76.3595503986 -8.54D+01  9.45D-03  9.77D+00     0.5
 d=40,ls=0.0,diis     2    -76.3537138249  5.84D-03  7.82D-03  1.71D+00     5.9
 d=40,ls=0.0,diis     3    -76.2483508810  1.05D-01  2.72D-03  1.09D+00     7.4
 d=40,ls=0.0,diis     4    -76.3433239672 -9.50D-02  1.03D-03  1.88D-01     7.5
 d=40,ls=0.0,diis     5    -76.3682515804 -2.49D-02  4.65D-04  4.00D-02     7.6
  Resetting Diis
 d=40,ls=0.0,diis     6    -76.3767681277 -8.52D-03  2.00D-04  7.26D-03     7.7
 d=40,ls=0.0,diis     7    -76.3797747857 -3.01D-03  2.54D-04  1.23D-03     7.8
 d=40,ls=0.0,diis     8    -76.3807674061 -9.93D-04  9.22D-05  9.82D-04     7.8
 d=40,ls=0.0,diis     9    -76.3812872525 -5.20D-04  4.62D-05  1.76D-04     7.9
 d=40,ls=0.0,diis    10    -76.3814868802 -2.00D-04  1.64D-05  2.40D-05     8.0
 d=40,ls=0.0,diis    11    -76.3815644895 -7.76D-05  6.42D-06  3.72D-06     8.1
 d=40,ls=0.0,diis    12    -76.3815952660 -3.08D-05  2.58D-06  5.97D-07     8.2
 d=40,ls=0.0,diis    13    -76.3816075369 -1.23D-05  1.03D-06  9.57D-08     8.3
  Singularity in Pulay matrix. Error and Fock matrices removed. 
  Singularity in Pulay matrix. Error and Fock matrices removed. 
  Singularity in Pulay matrix. Error and Fock matrices removed. 
 d=40,ls=0.0,diis    14    -76.3816124388 -4.90D-06  4.13D-07  1.53D-08     8.3
  Singularity in Pulay matrix. Error and Fock matrices removed. 
  Singularity in Pulay matrix. Error and Fock matrices removed. 
  Singularity in Pulay matrix. Error and Fock matrices removed. 
  Singularity in Pulay matrix. Error and Fock matrices removed. 
 d=40,ls=0.0,diis    15    -76.3816143986 -1.96D-06  1.65D-07  2.45D-09     8.4
  Singularity in Pulay matrix. Error and Fock matrices removed. 
 d=40,ls=0.0,diis    16    -76.3816151823 -7.84D-07  6.60D-08  3.92D-10     8.5


         Total DFT energy =      -76.381615182291
      One electron energy =     -122.798449172449
           Coulomb energy =       46.555180587651
    Exchange-Corr. energy =       -9.226641020628
 Nuclear repulsion energy =        9.088294423135

 Numeric. integr. density =       10.000002201166

     Total iterative time =      8.0s



                       DFT Final Molecular Orbital Analysis
                       ------------------------------------

 Vector    1  Occ=2.000000D+00  E=-1.875996D+01
              MO Center=  1.1D-18,  5.3D-17, -1.4D-04, r^2= 1.5D-02
   Bfn.  Coefficient  Atom+Function         Bfn.  Coefficient  Atom+Function  
  ----- ------------  ---------------      ----- ------------  ---------------
     1      0.979971  1 O  s                  3      0.059406  1 O  s          

 Vector    2  Occ=2.000000D+00  E=-9.285825D-01
              MO Center=  9.3D-16, -6.6D-17, -2.1D-01, r^2= 5.0D-01
   Bfn.  Coefficient  Atom+Function         Bfn.  Coefficient  Atom+Function  
  ----- ------------  ---------------      ----- ------------  ---------------
     2      0.467514  1 O  s                  4      0.270685  1 O  s          
     3      0.133194  1 O  s                 56      0.096773  2 H  s          
    81      0.096773  3 H  s                 57      0.092016  2 H  s          
    82      0.092016  3 H  s                  8     -0.072804  1 O  pz         
    11     -0.063573  1 O  pz                 1     -0.027750  1 O  s          

 Vector    3  Occ=2.000000D+00  E=-4.806956D-01
              MO Center= -1.4D-16, -4.3D-15, -2.2D-01, r^2= 7.8D-01
   Bfn.  Coefficient  Atom+Function         Bfn.  Coefficient  Atom+Function  
  ----- ------------  ---------------      ----- ------------  ---------------
     7      0.311609  1 O  py                10      0.278300  1 O  py         
    57      0.199614  2 H  s                 82     -0.199614  3 H  s          
    56      0.149473  2 H  s                 81     -0.149473  3 H  s          
    13      0.123792  1 O  py                58      0.107667  2 H  s          
    83     -0.107667  3 H  s                 42      0.030187  1 O  fyyy       

 Vector    4  Occ=2.000000D+00  E=-3.434305D-01
              MO Center=  6.3D-16, -6.3D-16,  6.0D-02, r^2= 7.6D-01
   Bfn.  Coefficient  Atom+Function         Bfn.  Coefficient  Atom+Function  
  ----- ------------  ---------------      ----- ------------  ---------------
     8      0.330809  1 O  pz                11      0.313011  1 O  pz         
     4      0.286223  1 O  s                  2      0.198387  1 O  s          
    14      0.191940  1 O  pz                 5      0.165339  1 O  s          
    57     -0.131436  2 H  s                 82     -0.131436  3 H  s          
    58     -0.125764  2 H  s                 83     -0.125764  3 H  s          

 Vector    5  Occ=2.000000D+00  E=-2.656469D-01
              MO Center= -2.1D-15,  8.2D-16, -4.8D-02, r^2= 7.3D-01
   Bfn.  Coefficient  Atom+Function         Bfn.  Coefficient  Atom+Function  
  ----- ------------  ---------------      ----- ------------  ---------------
     6      0.376843  1 O  px                 9      0.374416  1 O  px         
    12      0.278697  1 O  px                15      0.061413  1 O  px         
    49      0.037298  1 O  fxyy              39      0.036729  1 O  fxyy       
    51      0.035971  1 O  fxzz              41      0.033099  1 O  fxzz       
    46      0.030292  1 O  fxxx              66      0.030255  2 H  px         

 Vector    6  Occ=0.000000D+00  E=-3.554706D-02
              MO Center= -2.3D-15,  3.8D-14, -9.3D-01, r^2= 6.9D+00
   Bfn.  Coefficient  Atom+Function         Bfn.  Coefficient  Atom+Function  
  ----- ------------  ---------------      ----- ------------  ---------------
    59      0.412965  2 H  s                 84      0.412965  3 H  s          
     4     -0.259131  1 O  s                  2     -0.140548  1 O  s          
    11      0.106584  1 O  pz                14      0.102696  1 O  pz         
     8      0.099850  1 O  pz                67      0.076409  2 H  py         
    92     -0.076409  3 H  py                68     -0.074620  2 H  pz         

 Vector    7  Occ=0.000000D+00  E= 1.603170D-02
              MO Center= -1.1D-16, -2.1D-12, -8.8D-01, r^2= 1.3D+01
   Bfn.  Coefficient  Atom+Function         Bfn.  Coefficient  Atom+Function  
  ----- ------------  ---------------      ----- ------------  ---------------
    59      2.398463  2 H  s                 84     -2.398463  3 H  s          
    58      0.923101  2 H  s                 83     -0.923101  3 H  s          
    16     -0.548315  1 O  py                13     -0.206993  1 O  py         
    10     -0.127837  1 O  py                 7     -0.108723  1 O  py         
    68      0.059768  2 H  pz                93     -0.059768  3 H  pz         

 Vector    8  Occ=0.000000D+00  E= 6.689676D-02
              MO Center= -7.2D-15, -1.6D-12,  4.3D-01, r^2= 1.2D+01
   Bfn.  Coefficient  Atom+Function         Bfn.  Coefficient  Atom+Function  
  ----- ------------  ---------------      ----- ------------  ---------------
     5      6.345826  1 O  s                 58     -3.533948  2 H  s          
    83     -3.533948  3 H  s                 17     -1.734914  1 O  pz         
     4      1.526177  1 O  s                 59     -0.890958  2 H  s          
    84     -0.890958  3 H  s                 67      0.752262  2 H  py         
    92     -0.752262  3 H  py                68     -0.617710  2 H  pz         

 Vector    9  Occ=0.000000D+00  E= 8.465284D-02
              MO Center=  5.9D-14,  8.9D-14,  1.5D-01, r^2= 7.2D+00
   Bfn.  Coefficient  Atom+Function         Bfn.  Coefficient  Atom+Function  
  ----- ------------  ---------------      ----- ------------  ---------------
    15      1.447676  1 O  px                12     -0.317575  1 O  px         
    66     -0.229020  2 H  px                91     -0.229020  3 H  px         
    32     -0.213181  1 O  dxz               49      0.150918  1 O  fxyy       
     9     -0.140518  1 O  px                51      0.139900  1 O  fxzz       
     6     -0.118856  1 O  px                46      0.108316  1 O  fxxx       

 Vector   10  Occ=0.000000D+00  E= 8.915389D-02
              MO Center= -2.6D-14,  2.5D-12, -6.8D-01, r^2= 9.9D+00
   Bfn.  Coefficient  Atom+Function         Bfn.  Coefficient  Atom+Function  
  ----- ------------  ---------------      ----- ------------  ---------------
    58      1.898942  2 H  s                 83      1.898942  3 H  s          
    17      1.376401  1 O  pz                59     -0.624967  2 H  s          
    84     -0.624967  3 H  s                  4      0.590225  1 O  s          
    57     -0.425763  2 H  s                 82     -0.425763  3 H  s          
    14     -0.318037  1 O  pz                67      0.249732  2 H  py         

 Vector   11  Occ=0.000000D+00  E= 1.026541D-01
              MO Center=  1.2D-16,  1.2D-12, -9.3D-01, r^2= 1.2D+01
   Bfn.  Coefficient  Atom+Function         Bfn.  Coefficient  Atom+Function  
  ----- ------------  ---------------      ----- ------------  ---------------
    59      2.980743  2 H  s                 84     -2.980743  3 H  s          
    58      1.590556  2 H  s                 83     -1.590556  3 H  s          
    16     -1.356765  1 O  py                68      0.900009  2 H  pz         
    93     -0.900009  3 H  pz                67     -0.869171  2 H  py         
    92     -0.869171  3 H  py                13     -0.687461  1 O  py         

 Vector   12  Occ=0.000000D+00  E= 1.346988D-01
              MO Center= -5.4D-15, -3.8D-12,  5.2D-01, r^2= 9.7D+00
   Bfn.  Coefficient  Atom+Function         Bfn.  Coefficient  Atom+Function  
  ----- ------------  ---------------      ----- ------------  ---------------
    58      5.197581  2 H  s                 83     -5.197581  3 H  s          
    16     -3.663337  1 O  py                59      2.375057  2 H  s          
    84     -2.375057  3 H  s                 57     -0.512023  2 H  s          
    82      0.512023  3 H  s                 78     -0.447003  2 H  dyy        
   103      0.447003  3 H  dyy               75     -0.421447  2 H  dxx        

 Vector   13  Occ=0.000000D+00  E= 1.584176D-01
              MO Center= -1.0D-14,  3.1D-13, -1.9D-01, r^2= 6.6D+00
   Bfn.  Coefficient  Atom+Function         Bfn.  Coefficient  Atom+Function  
  ----- ------------  ---------------      ----- ------------  ---------------
     5      5.497932  1 O  s                 58     -3.125872  2 H  s          
    83     -3.125872  3 H  s                 68     -0.968913  2 H  pz         
    93     -0.968913  3 H  pz                35     -0.665296  1 O  dzz        
    14      0.610911  1 O  pz                67     -0.503966  2 H  py         
    92      0.503966  3 H  py                78      0.348009  2 H  dyy        

 Vector   14  Occ=0.000000D+00  E= 1.814923D-01
              MO Center=  7.3D-16, -7.9D-13, -6.3D-01, r^2= 5.9D+00
   Bfn.  Coefficient  Atom+Function         Bfn.  Coefficient  Atom+Function  
  ----- ------------  ---------------      ----- ------------  ---------------
    66      1.603900  2 H  px                91     -1.603900  3 H  px         
    31     -0.846983  1 O  dxy               76     -0.317926  2 H  dxy        
   101     -0.317926  3 H  dxy               77      0.293174  2 H  dxz        
   102     -0.293174  3 H  dxz               50      0.276524  1 O  fxyz       
    63      0.224319  2 H  px                88     -0.224319  3 H  px         

 Vector   15  Occ=0.000000D+00  E= 1.954554D-01
              MO Center=  1.6D-14,  2.7D-12,  8.1D-02, r^2= 7.4D+00
   Bfn.  Coefficient  Atom+Function         Bfn.  Coefficient  Atom+Function  
  ----- ------------  ---------------      ----- ------------  ---------------
     5      8.694981  1 O  s                 58     -5.127387  2 H  s          
    83     -5.127387  3 H  s                 17     -2.930711  1 O  pz         
    33     -1.128052  1 O  dyy               57      1.005445  2 H  s          
    82      1.005445  3 H  s                 68      0.910434  2 H  pz         
    93      0.910434  3 H  pz                 4     -0.736603  1 O  s          

 Vector   16  Occ=0.000000D+00  E= 2.040984D-01
              MO Center= -3.7D-14,  6.9D-13, -3.7D-01, r^2= 6.6D+00
   Bfn.  Coefficient  Atom+Function         Bfn.  Coefficient  Atom+Function  
  ----- ------------  ---------------      ----- ------------  ---------------
    15      2.003324  1 O  px                12      1.788556  1 O  px         
    66     -1.766811  2 H  px                91     -1.766811  3 H  px         
    32     -0.681490  1 O  dxz               76      0.383018  2 H  dxy        
   101     -0.383018  3 H  dxy               46     -0.240147  1 O  fxxx       
    63     -0.223233  2 H  px                88     -0.223233  3 H  px         

 Vector   17  Occ=0.000000D+00  E= 2.971531D-01
              MO Center=  1.7D-14, -3.5D-11, -9.3D-01, r^2= 8.4D+00
   Bfn.  Coefficient  Atom+Function         Bfn.  Coefficient  Atom+Function  
  ----- ------------  ---------------      ----- ------------  ---------------
     5     10.937083  1 O  s                 58     -6.963494  2 H  s          
    83     -6.963494  3 H  s                  4      5.690920  1 O  s          
    67      2.395318  2 H  py                92     -2.395318  3 H  py         
    68     -2.014015  2 H  pz                93     -2.014015  3 H  pz         
    14     -1.820473  1 O  pz                57     -1.324796  2 H  s          

 Vector   18  Occ=0.000000D+00  E= 2.995691D-01
              MO Center=  7.4D-16,  5.1D-13, -4.9D-01, r^2= 8.0D+00
   Bfn.  Coefficient  Atom+Function         Bfn.  Coefficient  Atom+Function  
  ----- ------------  ---------------      ----- ------------  ---------------
    67      3.967275  2 H  py                92      3.967275  3 H  py         
    16     -3.446117  1 O  py                58     -3.233632  2 H  s          
    83      3.233632  3 H  s                 68      1.843538  2 H  pz         
    93     -1.843538  3 H  pz                13     -1.420027  1 O  py         
    59      0.944364  2 H  s                 84     -0.944364  3 H  s          

 Vector   19  Occ=0.000000D+00  E= 3.199278D-01
              MO Center= -2.6D-15,  3.4D-11, -1.0D+00, r^2= 6.8D+00
   Bfn.  Coefficient  Atom+Function         Bfn.  Coefficient  Atom+Function  
  ----- ------------  ---------------      ----- ------------  ---------------
    58      4.591754  2 H  s                 83     -4.591754  3 H  s          
    13     -2.668768  1 O  py                67     -2.532892  2 H  py         
    92     -2.532892  3 H  py                59      1.755786  2 H  s          
    84     -1.755786  3 H  s                 57      1.725546  2 H  s          
    82     -1.725546  3 H  s                 68      1.710246  2 H  pz         

 Vector   20  Occ=0.000000D+00  E= 3.957012D-01
              MO Center=  1.7D-15,  1.2D-11,  1.6D-01, r^2= 7.6D+00
   Bfn.  Coefficient  Atom+Function         Bfn.  Coefficient  Atom+Function  
  ----- ------------  ---------------      ----- ------------  ---------------
    58     17.017151  2 H  s                 83    -17.017151  3 H  s          
    16     -4.284787  1 O  py                67     -3.782479  2 H  py         
    92     -3.782479  3 H  py                57     -2.956268  2 H  s          
    82      2.956268  3 H  s                 59      1.822526  2 H  s          
    84     -1.822526  3 H  s                 68      1.663166  2 H  pz         

 Vector   21  Occ=0.000000D+00  E= 4.099105D-01
              MO Center=  3.3D-14, -1.3D-11, -4.7D-01, r^2= 5.7D+00
   Bfn.  Coefficient  Atom+Function         Bfn.  Coefficient  Atom+Function  
  ----- ------------  ---------------      ----- ------------  ---------------
     5     13.577628  1 O  s                 58    -12.544152  2 H  s          
    83    -12.544152  3 H  s                 57      2.863299  2 H  s          
    82      2.863299  3 H  s                 17     -2.601235  1 O  pz         
    68     -1.417145  2 H  pz                78      1.421863  2 H  dyy        
    93     -1.417145  3 H  pz               103      1.421863  3 H  dyy        

 Vector   22  Occ=0.000000D+00  E= 5.277947D-01
              MO Center=  2.4D-14,  3.6D-13,  2.8D-01, r^2= 4.3D+00
   Bfn.  Coefficient  Atom+Function         Bfn.  Coefficient  Atom+Function  
  ----- ------------  ---------------      ----- ------------  ---------------
     4      4.076059  1 O  s                 57     -2.694997  2 H  s          
    82     -2.694997  3 H  s                 35      1.849677  1 O  dzz        
    14     -1.802025  1 O  pz                17     -1.319434  1 O  pz         
    64      1.123426  2 H  py                89     -1.123426  3 H  py         
    68      1.104071  2 H  pz                93      1.104071  3 H  pz         

 Vector   23  Occ=0.000000D+00  E= 5.484958D-01
              MO Center= -1.4D-13,  4.6D-13,  4.8D-01, r^2= 3.5D+00
   Bfn.  Coefficient  Atom+Function         Bfn.  Coefficient  Atom+Function  
  ----- ------------  ---------------      ----- ------------  ---------------
    32      1.733692  1 O  dxz               15     -1.352456  1 O  px         
    49     -0.864540  1 O  fxyy              66      0.790435  2 H  px         
    91      0.790435  3 H  px                12      0.751185  1 O  px         
    51     -0.705756  1 O  fxzz              46     -0.555840  1 O  fxxx       
    77      0.516565  2 H  dxz              102      0.516565  3 H  dxz        

 Vector   24  Occ=0.000000D+00  E= 5.548908D-01
              MO Center=  6.8D-14, -8.0D-13, -5.3D-01, r^2= 4.0D+00
   Bfn.  Coefficient  Atom+Function         Bfn.  Coefficient  Atom+Function  
  ----- ------------  ---------------      ----- ------------  ---------------
     4      6.535049  1 O  s                 57     -4.237833  2 H  s          
    82     -4.237833  3 H  s                 58      3.944552  2 H  s          
    83      3.944552  3 H  s                  5     -2.328686  1 O  s          
    30     -2.213360  1 O  dxx               35     -1.832965  1 O  dzz        
    53     -1.459726  1 O  fyyz              65     -1.131387  2 H  pz         

 Vector   25  Occ=0.000000D+00  E= 5.703903D-01
              MO Center= -2.2D-14, -8.4D-13, -3.3D-01, r^2= 4.2D+00
   Bfn.  Coefficient  Atom+Function         Bfn.  Coefficient  Atom+Function  
  ----- ------------  ---------------      ----- ------------  ---------------
    31      3.358135  1 O  dxy               66     -1.703615  2 H  px         
    91      1.703615  3 H  px                76      1.017158  2 H  dxy        
   101      1.017158  3 H  dxy               50     -0.852544  1 O  fxyz       
    77     -0.728309  2 H  dxz              102      0.728309  3 H  dxz        
    63     -0.505533  2 H  px                88      0.505533  3 H  px         

 Vector   26  Occ=0.000000D+00  E= 6.117200D-01
              MO Center=  2.0D-13,  1.4D-11,  2.4D-01, r^2= 4.9D+00
   Bfn.  Coefficient  Atom+Function         Bfn.  Coefficient  Atom+Function  
  ----- ------------  ---------------      ----- ------------  ---------------
     5      9.904664  1 O  s                 58     -5.391389  2 H  s          
    83     -5.391389  3 H  s                 33     -3.289444  1 O  dyy        
    30     -2.312557  1 O  dxx                4      2.094935  1 O  s          
    35     -1.876979  1 O  dzz               17     -1.675660  1 O  pz         
    57      1.477162  2 H  s                 82      1.477162  3 H  s          

 Vector   27  Occ=0.000000D+00  E= 6.176448D-01
              MO Center= -2.4D-13,  3.4D-13, -7.5D-01, r^2= 3.6D+00
   Bfn.  Coefficient  Atom+Function         Bfn.  Coefficient  Atom+Function  
  ----- ------------  ---------------      ----- ------------  ---------------
    12      4.521319  1 O  px                32     -2.109422  1 O  dxz        
    66     -1.657364  2 H  px                91     -1.657364  3 H  px         
    15      0.985449  1 O  px                46     -0.863830  1 O  fxxx       
    77     -0.732607  2 H  dxz              102     -0.732607  3 H  dxz        
    76      0.676546  2 H  dxy              101     -0.676546  3 H  dxy        

 Vector   28  Occ=0.000000D+00  E= 6.204732D-01
              MO Center=  2.2D-14, -1.2D-11,  6.8D-02, r^2= 4.2D+00
   Bfn.  Coefficient  Atom+Function         Bfn.  Coefficient  Atom+Function  
  ----- ------------  ---------------      ----- ------------  ---------------
    57      7.359393  2 H  s                 82     -7.359393  3 H  s          
    58     -5.739725  2 H  s                 83      5.739725  3 H  s          
    34      5.417217  1 O  dyz               13     -2.948859  1 O  py         
    54     -1.666007  1 O  fyzz              64     -1.379678  2 H  py         
    89     -1.379678  3 H  py                52     -1.287295  1 O  fyyy       

 Vector   29  Occ=0.000000D+00  E= 7.137559D-01
              MO Center= -4.6D-15, -1.5D-15, -4.8D-01, r^2= 3.5D+00
   Bfn.  Coefficient  Atom+Function         Bfn.  Coefficient  Atom+Function  
  ----- ------------  ---------------      ----- ------------  ---------------
    32      2.200449  1 O  dxz               76     -1.634459  2 H  dxy        
   101      1.634459  3 H  dxy               12     -1.064800  1 O  px         
    66      0.647631  2 H  px                91      0.647631  3 H  px         
    51     -0.630190  1 O  fxzz              15     -0.560419  1 O  px         
    77     -0.385723  2 H  dxz              102     -0.385723  3 H  dxz        

 Vector   30  Occ=0.000000D+00  E= 7.676601D-01
              MO Center=  6.3D-15, -3.0D-15, -7.3D-01, r^2= 3.2D+00
   Bfn.  Coefficient  Atom+Function         Bfn.  Coefficient  Atom+Function  
  ----- ------------  ---------------      ----- ------------  ---------------
    77      1.592780  2 H  dxz              102     -1.592780  3 H  dxz        
    76     -0.818327  2 H  dxy              101     -0.818327  3 H  dxy        
    66      0.642165  2 H  px                91     -0.642165  3 H  px         
    31     -0.349357  1 O  dxy               25     -0.202531  1 O  dxy        
    50      0.147639  1 O  fxyz              19      0.042139  1 O  dxy        

 Vector   31  Occ=0.000000D+00  E= 7.803166D-01
              MO Center=  1.4D-15,  7.7D-13, -3.6D-01, r^2= 3.3D+00
   Bfn.  Coefficient  Atom+Function         Bfn.  Coefficient  Atom+Function  
  ----- ------------  ---------------      ----- ------------  ---------------
    57     -3.395926  2 H  s                 82     -3.395926  3 H  s          
    58      3.269803  2 H  s                 83      3.269803  3 H  s          
     5     -3.198638  1 O  s                  4      3.165263  1 O  s          
    30     -1.969586  1 O  dxx               14     -1.725352  1 O  pz         
    35      1.402576  1 O  dzz               80     -1.193392  2 H  dzz        

 Vector   32  Occ=0.000000D+00  E= 7.879518D-01
              MO Center= -1.7D-14, -6.5D-12, -7.8D-01, r^2= 5.0D+00
   Bfn.  Coefficient  Atom+Function         Bfn.  Coefficient  Atom+Function  
  ----- ------------  ---------------      ----- ------------  ---------------
    13      6.106295  1 O  py                16      3.156259  1 O  py         
    58     -2.896405  2 H  s                 83      2.896405  3 H  s          
    68     -2.873315  2 H  pz                93      2.873315  3 H  pz         
    57     -2.297682  2 H  s                 82      2.297682  3 H  s          
    34     -1.456743  1 O  dyz               67     -1.454687  2 H  py         

 Vector   33  Occ=0.000000D+00  E= 8.151862D-01
              MO Center=  9.4D-14, -3.9D-12, -9.2D-01, r^2= 4.8D+00
   Bfn.  Coefficient  Atom+Function         Bfn.  Coefficient  Atom+Function  
  ----- ------------  ---------------      ----- ------------  ---------------
     4     11.067729  1 O  s                  5      6.814194  1 O  s          
    58     -5.024126  2 H  s                 83     -5.024126  3 H  s          
    14     -3.897882  1 O  pz                57     -3.442980  2 H  s          
    82     -3.442980  3 H  s                 67      2.282288  2 H  py         
    92     -2.282288  3 H  py                68     -1.911109  2 H  pz         

 Vector   34  Occ=0.000000D+00  E= 8.383162D-01
              MO Center=  8.1D-16,  7.9D-12, -5.7D-01, r^2= 4.9D+00
   Bfn.  Coefficient  Atom+Function         Bfn.  Coefficient  Atom+Function  
  ----- ------------  ---------------      ----- ------------  ---------------
    67      2.789353  2 H  py                92      2.789353  3 H  py         
    34      1.917043  1 O  dyz               78     -1.903595  2 H  dyy        
   103      1.903595  3 H  dyy               58     -1.876477  2 H  s          
    83      1.876477  3 H  s                 79      0.889666  2 H  dyz        
   104      0.889666  3 H  dyz               16     -0.877277  1 O  py         

 Vector   35  Occ=0.000000D+00  E= 8.474620D-01
              MO Center= -4.7D-14,  1.5D-14, -6.2D-01, r^2= 3.4D+00
   Bfn.  Coefficient  Atom+Function         Bfn.  Coefficient  Atom+Function  
  ----- ------------  ---------------      ----- ------------  ---------------
    77      1.794052  2 H  dxz              102      1.794052  3 H  dxz        
    12     -1.174362  1 O  px                76     -1.070465  2 H  dxy        
   101      1.070465  3 H  dxy               32     -1.027102  1 O  dxz        
    66      0.758400  2 H  px                91      0.758400  3 H  px         
    49     -0.749240  1 O  fxyy              15     -0.533907  1 O  px         

 Vector   36  Occ=0.000000D+00  E= 9.316750D-01
              MO Center=  2.5D-15,  3.0D-13, -4.8D-01, r^2= 3.9D+00
   Bfn.  Coefficient  Atom+Function         Bfn.  Coefficient  Atom+Function  
  ----- ------------  ---------------      ----- ------------  ---------------
    58      9.711500  2 H  s                 83     -9.711500  3 H  s          
    34     -2.872085  1 O  dyz               57     -2.751737  2 H  s          
    82      2.751737  3 H  s                 67     -2.524180  2 H  py         
    92     -2.524180  3 H  py                75     -1.714773  2 H  dxx        
   100      1.714773  3 H  dxx               79      1.322907  2 H  dyz        

 Vector   37  Occ=0.000000D+00  E= 9.603707D-01
              MO Center= -1.0D-14, -3.7D-12, -3.5D-01, r^2= 4.0D+00
   Bfn.  Coefficient  Atom+Function         Bfn.  Coefficient  Atom+Function  
  ----- ------------  ---------------      ----- ------------  ---------------
    14      7.579749  1 O  pz                57      5.257088  2 H  s          
    82      5.257088  3 H  s                  5      4.935959  1 O  s          
    58     -4.952168  2 H  s                 83     -4.952168  3 H  s          
    33     -3.766232  1 O  dyy               35     -2.997236  1 O  dzz        
    79      2.545190  2 H  dyz              104     -2.545190  3 H  dyz        

 Vector   38  Occ=0.000000D+00  E= 1.002395D+00
              MO Center=  5.5D-14, -2.4D-10, -3.3D-01, r^2= 4.2D+00
   Bfn.  Coefficient  Atom+Function         Bfn.  Coefficient  Atom+Function  
  ----- ------------  ---------------      ----- ------------  ---------------
     5     14.311532  1 O  s                 58    -14.217304  2 H  s          
    83    -14.217304  3 H  s                  4      5.636906  1 O  s          
    14     -3.566908  1 O  pz                33      2.850776  1 O  dyy        
    17     -2.299364  1 O  pz                75      2.024685  2 H  dxx        
   100      2.024685  3 H  dxx               80      1.867150  2 H  dzz        

 Vector   39  Occ=0.000000D+00  E= 1.003569D+00
              MO Center=  7.1D-15,  2.4D-10, -3.9D-01, r^2= 4.6D+00
   Bfn.  Coefficient  Atom+Function         Bfn.  Coefficient  Atom+Function  
  ----- ------------  ---------------      ----- ------------  ---------------
    58     15.873903  2 H  s                 83    -15.873903  3 H  s          
    67     -3.587199  2 H  py                92     -3.587199  3 H  py         
    16     -2.825516  1 O  py                75     -2.589935  2 H  dxx        
   100      2.589935  3 H  dxx               80     -2.326155  2 H  dzz        
   105      2.326155  3 H  dzz               79     -2.069587  2 H  dyz        

 Vector   40  Occ=0.000000D+00  E= 1.027490D+00
              MO Center= -7.9D-15,  2.2D-14, -5.4D-01, r^2= 3.5D+00
   Bfn.  Coefficient  Atom+Function         Bfn.  Coefficient  Atom+Function  
  ----- ------------  ---------------      ----- ------------  ---------------
    76     -2.322802  2 H  dxy              101     -2.322802  3 H  dxy        
    31      2.171853  1 O  dxy               77     -1.178931  2 H  dxz        
   102      1.178931  3 H  dxz               66      0.425190  2 H  px         
    91     -0.425190  3 H  px                50      0.137376  1 O  fxyz       
    25     -0.118255  1 O  dxy               63     -0.084393  2 H  px         

 Vector   41  Occ=0.000000D+00  E= 1.098427D+00
              MO Center= -9.9D-15, -2.9D-11, -7.3D-01, r^2= 3.7D+00
   Bfn.  Coefficient  Atom+Function         Bfn.  Coefficient  Atom+Function  
  ----- ------------  ---------------      ----- ------------  ---------------
    14     10.352558  1 O  pz                57      8.006097  2 H  s          
    82      8.006097  3 H  s                 33     -7.260165  1 O  dyy        
    58     -5.431542  2 H  s                 83     -5.431542  3 H  s          
     5      5.282485  1 O  s                 35     -4.331239  1 O  dzz        
    75      3.583417  2 H  dxx              100      3.583417  3 H  dxx        

 Vector   42  Occ=0.000000D+00  E= 1.103307D+00
              MO Center=  5.1D-15,  2.6D-11, -2.3D-01, r^2= 4.0D+00
   Bfn.  Coefficient  Atom+Function         Bfn.  Coefficient  Atom+Function  
  ----- ------------  ---------------      ----- ------------  ---------------
    13     19.502332  1 O  py                34    -13.888134  1 O  dyz        
    57    -12.953784  2 H  s                 82     12.953784  3 H  s          
    75     -3.698235  2 H  dxx              100      3.698235  3 H  dxx        
    79     -3.177226  2 H  dyz              104     -3.177226  3 H  dyz        
    47     -2.904229  1 O  fxxy              52     -2.587575  1 O  fyyy       

 Vector   43  Occ=0.000000D+00  E= 1.288343D+00
              MO Center= -9.5D-16, -3.8D-13, -4.0D-01, r^2= 3.0D+00
   Bfn.  Coefficient  Atom+Function         Bfn.  Coefficient  Atom+Function  
  ----- ------------  ---------------      ----- ------------  ---------------
    31      4.753587  1 O  dxy               63     -2.185206  2 H  px         
    88      2.185206  3 H  px                77     -1.791404  2 H  dxz        
   102      1.791404  3 H  dxz               76      1.471051  2 H  dxy        
   101      1.471051  3 H  dxy               66     -1.306148  2 H  px         
    91      1.306148  3 H  px                50     -1.258785  1 O  fxyz       

 Vector   44  Occ=0.000000D+00  E= 1.343158D+00
              MO Center= -4.3D-13,  3.9D-13, -4.8D-01, r^2= 2.8D+00
   Bfn.  Coefficient  Atom+Function         Bfn.  Coefficient  Atom+Function  
  ----- ------------  ---------------      ----- ------------  ---------------
    12      5.034081  1 O  px                32     -3.685549  1 O  dxz        
    63     -2.275408  2 H  px                88     -2.275408  3 H  px         
    76      1.945796  2 H  dxy              101     -1.945796  3 H  dxy        
    66     -1.390531  2 H  px                77     -1.394640  2 H  dxz        
    91     -1.390531  3 H  px               102     -1.394640  3 H  dxz        

 Vector   45  Occ=0.000000D+00  E= 1.345227D+00
              MO Center=  4.2D-13,  1.4D-12, -3.9D-01, r^2= 2.9D+00
   Bfn.  Coefficient  Atom+Function         Bfn.  Coefficient  Atom+Function  
  ----- ------------  ---------------      ----- ------------  ---------------
    14      6.944897  1 O  pz                35     -3.986356  1 O  dzz        
     4     -3.835187  1 O  s                 57      3.488609  2 H  s          
    82      3.488609  3 H  s                 64     -2.091280  2 H  py         
    89      2.091280  3 H  py                 5     -1.654637  1 O  s          
    65     -1.590578  2 H  pz                90     -1.590578  3 H  pz         

 Vector   46  Occ=0.000000D+00  E= 1.484813D+00
              MO Center= -4.8D-15, -3.0D-12, -3.4D-01, r^2= 2.7D+00
   Bfn.  Coefficient  Atom+Function         Bfn.  Coefficient  Atom+Function  
  ----- ------------  ---------------      ----- ------------  ---------------
     4     22.300129  1 O  s                 57    -10.303005  2 H  s          
    82    -10.303005  3 H  s                 53     -4.573124  1 O  fyyz       
    64      4.543320  2 H  py                89     -4.543320  3 H  py         
    65     -3.325362  2 H  pz                90     -3.325362  3 H  pz         
    30     -3.168044  1 O  dxx               55     -2.793199  1 O  fzzz       

 Vector   47  Occ=0.000000D+00  E= 1.580201D+00
              MO Center=  3.3D-15,  1.9D-12, -4.5D-01, r^2= 2.9D+00
   Bfn.  Coefficient  Atom+Function         Bfn.  Coefficient  Atom+Function  
  ----- ------------  ---------------      ----- ------------  ---------------
    57     10.453305  2 H  s                 82    -10.453305  3 H  s          
    13     -5.653440  1 O  py                34      4.713048  1 O  dyz        
    65      3.963660  2 H  pz                90     -3.963660  3 H  pz         
    54     -3.201573  1 O  fyzz              52     -3.110368  1 O  fyyy       
    64     -2.932028  2 H  py                89     -2.932028  3 H  py         

 Vector   48  Occ=0.000000D+00  E= 1.585241D+00
              MO Center=  1.0D-15, -1.5D-13, -4.7D-01, r^2= 3.0D+00
   Bfn.  Coefficient  Atom+Function         Bfn.  Coefficient  Atom+Function  
  ----- ------------  ---------------      ----- ------------  ---------------
    13      8.827207  1 O  py                34     -2.804611  1 O  dyz        
    58     -2.633565  2 H  s                 83      2.633565  3 H  s          
    64     -2.340135  2 H  py                89     -2.340135  3 H  py         
    54     -2.081369  1 O  fyzz              78      2.071829  2 H  dyy        
   103     -2.071829  3 H  dyy               16      1.811638  1 O  py         

 Vector   49  Occ=0.000000D+00  E= 1.729272D+00
              MO Center=  7.8D-14, -1.8D-14,  1.8D-01, r^2= 1.9D+00
   Bfn.  Coefficient  Atom+Function         Bfn.  Coefficient  Atom+Function  
  ----- ------------  ---------------      ----- ------------  ---------------
    12      3.099947  1 O  px                49     -2.620011  1 O  fxyy       
    51     -2.249634  1 O  fxzz              46     -2.168754  1 O  fxxx       
    26     -0.486064  1 O  dxz               32      0.435959  1 O  dxz        
    15     -0.384522  1 O  px                36     -0.310686  1 O  fxxx       
    41     -0.306682  1 O  fxzz               9      0.299991  1 O  px         

 Vector   50  Occ=0.000000D+00  E= 1.774032D+00
              MO Center= -1.0D-13,  5.8D-13,  5.3D-01, r^2= 2.4D+00
   Bfn.  Coefficient  Atom+Function         Bfn.  Coefficient  Atom+Function  
  ----- ------------  ---------------      ----- ------------  ---------------
     4     11.099812  1 O  s                  5      4.934428  1 O  s          
    14     -4.911917  1 O  pz                57     -2.361752  2 H  s          
    82     -2.361752  3 H  s                 53      2.341580  1 O  fyyz       
    58     -1.779029  2 H  s                 83     -1.779029  3 H  s          
    55      1.745139  1 O  fzzz              30     -1.535033  1 O  dxx        

 Vector   51  Occ=0.000000D+00  E= 1.942364D+00
              MO Center= -1.4D-15,  4.1D-14, -2.1D-01, r^2= 2.8D+00
   Bfn.  Coefficient  Atom+Function         Bfn.  Coefficient  Atom+Function  
  ----- ------------  ---------------      ----- ------------  ---------------
    13      5.626868  1 O  py                58     -3.373811  2 H  s          
    83      3.373811  3 H  s                 54     -3.345885  1 O  fyzz       
    52     -2.577442  1 O  fyyy              67      1.966144  2 H  py         
    92      1.966144  3 H  py                47     -1.785654  1 O  fxxy       
    78     -1.536308  2 H  dyy              103      1.536308  3 H  dyy        

 Vector   52  Occ=0.000000D+00  E= 1.960444D+00
              MO Center= -1.2D-14,  1.4D-14, -1.5D-01, r^2= 1.5D+00
   Bfn.  Coefficient  Atom+Function         Bfn.  Coefficient  Atom+Function  
  ----- ------------  ---------------      ----- ------------  ---------------
    26      1.508903  1 O  dxz               46     -1.483577  1 O  fxxx       
    12      1.165115  1 O  px                32     -1.123218  1 O  dxz        
    49      1.092294  1 O  fxyy              51     -0.601963  1 O  fxzz       
    76     -0.491097  2 H  dxy              101      0.491097  3 H  dxy        
    66     -0.299188  2 H  px                91     -0.299188  3 H  px         

 Vector   53  Occ=0.000000D+00  E= 1.986962D+00
              MO Center=  2.8D-15,  2.7D-16,  7.0D-02, r^2= 1.5D+00
   Bfn.  Coefficient  Atom+Function         Bfn.  Coefficient  Atom+Function  
  ----- ------------  ---------------      ----- ------------  ---------------
    50      3.438343  1 O  fxyz              25      1.520345  1 O  dxy        
    31     -1.452879  1 O  dxy               76      0.455468  2 H  dxy        
   101      0.455468  3 H  dxy               77     -0.375397  2 H  dxz        
   102      0.375397  3 H  dxz               40     -0.264607  1 O  fxyz       
    66      0.146409  2 H  px                91     -0.146409  3 H  px         

 Vector   54  Occ=0.000000D+00  E= 2.098287D+00
              MO Center= -1.1D-15,  1.5D-13, -4.0D-02, r^2= 1.7D+00
   Bfn.  Coefficient  Atom+Function         Bfn.  Coefficient  Atom+Function  
  ----- ------------  ---------------      ----- ------------  ---------------
     4      2.917852  1 O  s                 48      2.627222  1 O  fxxz       
    14     -2.432294  1 O  pz                57     -2.425149  2 H  s          
    82     -2.425149  3 H  s                 58      2.379583  2 H  s          
    83      2.379583  3 H  s                  5     -2.266467  1 O  s          
    35      1.795117  1 O  dzz               53      1.588496  1 O  fyyz       

 Vector   55  Occ=0.000000D+00  E= 2.111441D+00
              MO Center= -3.4D-15, -3.9D-15,  6.0D-03, r^2= 1.6D+00
   Bfn.  Coefficient  Atom+Function         Bfn.  Coefficient  Atom+Function  
  ----- ------------  ---------------      ----- ------------  ---------------
    51      3.194177  1 O  fxzz              32     -1.858624  1 O  dxz        
    49     -1.287586  1 O  fxyy              12      0.709920  1 O  px         
    77      0.661962  2 H  dxz              102      0.661962  3 H  dxz        
    76      0.649709  2 H  dxy              101     -0.649709  3 H  dxy        
    46     -0.564723  1 O  fxxx              63     -0.483659  2 H  px         

 Vector   56  Occ=0.000000D+00  E= 2.136853D+00
              MO Center=  3.8D-14,  3.9D-13, -4.3D-01, r^2= 2.5D+00
   Bfn.  Coefficient  Atom+Function         Bfn.  Coefficient  Atom+Function  
  ----- ------------  ---------------      ----- ------------  ---------------
    30     -3.373011  1 O  dxx               14      3.328965  1 O  pz         
    33     -3.259967  1 O  dyy               35     -2.971345  1 O  dzz        
     2     -1.721893  1 O  s                  3     -1.335743  1 O  s          
    58      1.329990  2 H  s                 83      1.329990  3 H  s          
    29     -1.277853  1 O  dzz               67     -1.265454  2 H  py         

 Vector   57  Occ=0.000000D+00  E= 2.313374D+00
              MO Center= -7.9D-15, -5.9D-12,  2.1D-02, r^2= 2.0D+00
   Bfn.  Coefficient  Atom+Function         Bfn.  Coefficient  Atom+Function  
  ----- ------------  ---------------      ----- ------------  ---------------
    13     13.159207  1 O  py                57     -7.613787  2 H  s          
    82      7.613787  3 H  s                 34     -7.060181  1 O  dyz        
    58     -6.482152  2 H  s                 83      6.482152  3 H  s          
    47     -5.147873  1 O  fxxy              16      1.449723  1 O  py         
    79     -1.228560  2 H  dyz              104     -1.228560  3 H  dyz        

 Vector   58  Occ=0.000000D+00  E= 2.324623D+00
              MO Center=  2.5D-14,  5.1D-12, -1.5D-01, r^2= 2.3D+00
   Bfn.  Coefficient  Atom+Function         Bfn.  Coefficient  Atom+Function  
  ----- ------------  ---------------      ----- ------------  ---------------
    14      8.721053  1 O  pz                58      8.361930  2 H  s          
    83      8.361930  3 H  s                  5     -7.786357  1 O  s          
    57      7.120589  2 H  s                 82      7.120589  3 H  s          
     4     -6.499510  1 O  s                 33     -5.344945  1 O  dyy        
    35     -3.394917  1 O  dzz               48     -3.308985  1 O  fxxz       

 Vector   59  Occ=0.000000D+00  E= 2.429251D+00
              MO Center=  2.8D-15, -1.8D-13, -2.7D-01, r^2= 1.8D+00
   Bfn.  Coefficient  Atom+Function         Bfn.  Coefficient  Atom+Function  
  ----- ------------  ---------------      ----- ------------  ---------------
    14      4.144474  1 O  pz                35     -2.346426  1 O  dzz        
    65     -2.207289  2 H  pz                90     -2.207289  3 H  pz         
    58     -2.145645  2 H  s                 83     -2.145645  3 H  s          
     5      1.959043  1 O  s                 48     -1.687888  1 O  fxxz       
    27      1.488065  1 O  dyy               79      1.240648  2 H  dyz        

 Vector   60  Occ=0.000000D+00  E= 2.480929D+00
              MO Center= -1.0D-13, -1.7D-13, -1.9D-01, r^2= 1.9D+00
   Bfn.  Coefficient  Atom+Function         Bfn.  Coefficient  Atom+Function  
  ----- ------------  ---------------      ----- ------------  ---------------
    49      4.091724  1 O  fxyy              12      3.850611  1 O  px         
    63     -2.699380  2 H  px                88     -2.699380  3 H  px         
    32     -2.473047  1 O  dxz               26     -2.030669  1 O  dxz        
    51      1.896933  1 O  fxzz              76      1.616355  2 H  dxy        
   101     -1.616355  3 H  dxy               77     -1.378698  2 H  dxz        

 Vector   61  Occ=0.000000D+00  E= 2.499260D+00
              MO Center=  5.2D-15, -8.0D-13, -9.6D-02, r^2= 2.2D+00
   Bfn.  Coefficient  Atom+Function         Bfn.  Coefficient  Atom+Function  
  ----- ------------  ---------------      ----- ------------  ---------------
    58      6.089874  2 H  s                 83     -6.089874  3 H  s          
    57      6.056406  2 H  s                 82     -6.056406  3 H  s          
    54     -4.955745  1 O  fyzz              64     -3.606340  2 H  py         
    89     -3.606340  3 H  py                28      3.010285  1 O  dyz        
    34      2.970586  1 O  dyz               47     -1.833599  1 O  fxxy       

 Vector   62  Occ=0.000000D+00  E= 2.554286D+00
              MO Center= -5.6D-15,  1.9D-13, -1.8D-01, r^2= 1.9D+00
   Bfn.  Coefficient  Atom+Function         Bfn.  Coefficient  Atom+Function  
  ----- ------------  ---------------      ----- ------------  ---------------
    50      6.597658  1 O  fxyz              31     -3.412267  1 O  dxy        
    63      2.683108  2 H  px                88     -2.683108  3 H  px         
    25     -2.337755  1 O  dxy               76     -1.587809  2 H  dxy        
   101     -1.587809  3 H  dxy               77      1.249377  2 H  dxz        
   102     -1.249377  3 H  dxz               66      0.901718  2 H  px         

 Vector   63  Occ=0.000000D+00  E= 2.714239D+00
              MO Center=  1.0D-13, -6.5D-12, -2.7D-01, r^2= 2.2D+00
   Bfn.  Coefficient  Atom+Function         Bfn.  Coefficient  Atom+Function  
  ----- ------------  ---------------      ----- ------------  ---------------
     4     27.230640  1 O  s                 57    -10.726937  2 H  s          
    82    -10.726937  3 H  s                  5      8.466865  1 O  s          
    58     -7.290506  2 H  s                 83     -7.290506  3 H  s          
    64      6.468752  2 H  py                89     -6.468752  3 H  py         
    55     -5.530436  1 O  fzzz              53     -5.080415  1 O  fyyz       

 Vector   64  Occ=0.000000D+00  E= 2.774025D+00
              MO Center= -2.2D-15,  7.8D-12, -1.9D-01, r^2= 2.2D+00
   Bfn.  Coefficient  Atom+Function         Bfn.  Coefficient  Atom+Function  
  ----- ------------  ---------------      ----- ------------  ---------------
    57      7.066410  2 H  s                 82     -7.066410  3 H  s          
    52     -6.121046  1 O  fyyy              58      6.043935  2 H  s          
    83     -6.043935  3 H  s                 65      5.130162  2 H  pz         
    90     -5.130162  3 H  pz                47     -5.034543  1 O  fxxy       
    10     -4.664130  1 O  py                28      4.563831  1 O  dyz        

 Vector   65  Occ=0.000000D+00  E= 3.550049D+00
              MO Center=  4.9D-15,  5.5D-12, -4.8D-01, r^2= 1.9D+00
   Bfn.  Coefficient  Atom+Function         Bfn.  Coefficient  Atom+Function  
  ----- ------------  ---------------      ----- ------------  ---------------
    58      7.090057  2 H  s                 83     -7.090057  3 H  s          
    57     -3.449215  2 H  s                 82      3.449215  3 H  s          
    54      2.647079  1 O  fyzz              34     -2.384941  1 O  dyz        
    78     -2.041995  2 H  dyy              103      2.041995  3 H  dyy        
    64      1.947491  2 H  py                89      1.947491  3 H  py         

 Vector   66  Occ=0.000000D+00  E= 3.582109D+00
              MO Center= -1.6D-15, -5.8D-12, -4.8D-01, r^2= 2.2D+00
   Bfn.  Coefficient  Atom+Function         Bfn.  Coefficient  Atom+Function  
  ----- ------------  ---------------      ----- ------------  ---------------
     4     19.350926  1 O  s                 57     -5.655973  2 H  s          
    82     -5.655973  3 H  s                 58      5.621143  2 H  s          
    83      5.621143  3 H  s                 53     -3.688419  1 O  fyyz       
    24     -3.346301  1 O  dxx                5     -3.132772  1 O  s          
    30     -3.082083  1 O  dxx               29     -2.185949  1 O  dzz        

 Vector   67  Occ=0.000000D+00  E= 3.648232D+00
              MO Center=  2.1D-15,  7.8D-15, -6.1D-01, r^2= 1.2D+00
   Bfn.  Coefficient  Atom+Function         Bfn.  Coefficient  Atom+Function  
  ----- ------------  ---------------      ----- ------------  ---------------
    71      1.084579  2 H  dxz               96     -1.084579  3 H  dxz        
    50     -0.907181  1 O  fxyz              70      0.774020  2 H  dxy        
    95      0.774020  3 H  dxy               76     -0.722876  2 H  dxy        
   101     -0.722876  3 H  dxy               77     -0.461891  2 H  dxz        
   102      0.461891  3 H  dxz               31      0.384244  1 O  dxy        

 Vector   68  Occ=0.000000D+00  E= 3.784152D+00
              MO Center=  1.8D-14, -3.1D-13,  1.7D-02, r^2= 2.2D+00
   Bfn.  Coefficient  Atom+Function         Bfn.  Coefficient  Atom+Function  
  ----- ------------  ---------------      ----- ------------  ---------------
     4     14.746344  1 O  s                 33     -5.400334  1 O  dyy        
    27     -5.294394  1 O  dyy               29     -5.259433  1 O  dzz        
    24     -5.218667  1 O  dxx               30     -3.860196  1 O  dxx        
    35     -3.582465  1 O  dzz                3     -3.486464  1 O  s          
     5      3.300218  1 O  s                 53      2.502620  1 O  fyyz       

 Vector   69  Occ=0.000000D+00  E= 3.818324D+00
              MO Center=  3.0D-14,  5.0D-13, -3.5D-01, r^2= 1.7D+00
   Bfn.  Coefficient  Atom+Function         Bfn.  Coefficient  Atom+Function  
  ----- ------------  ---------------      ----- ------------  ---------------
     4     10.961194  1 O  s                 35     -3.542598  1 O  dzz        
    29     -3.192644  1 O  dzz               30     -2.926004  1 O  dxx        
    24     -2.847768  1 O  dxx               27     -2.739516  1 O  dyy        
    14      2.175361  1 O  pz                33     -2.177345  1 O  dyy        
     3     -2.092909  1 O  s                 53     -1.324906  1 O  fyyz       

 Vector   70  Occ=0.000000D+00  E= 3.880131D+00
              MO Center= -5.3D-15,  1.3D-13, -5.5D-01, r^2= 1.4D+00
   Bfn.  Coefficient  Atom+Function         Bfn.  Coefficient  Atom+Function  
  ----- ------------  ---------------      ----- ------------  ---------------
    13      3.587578  1 O  py                57     -2.697060  2 H  s          
    82      2.697060  3 H  s                 34     -2.513861  1 O  dyz        
    47     -1.171999  1 O  fxxy              73     -1.064880  2 H  dyz        
    98     -1.064880  3 H  dyz               52      0.998688  1 O  fyyy       
    58      0.959629  2 H  s                 83     -0.959629  3 H  s          

 Vector   71  Occ=0.000000D+00  E= 3.909176D+00
              MO Center= -4.6D-15,  2.0D-13, -4.2D-01, r^2= 1.3D+00
   Bfn.  Coefficient  Atom+Function         Bfn.  Coefficient  Atom+Function  
  ----- ------------  ---------------      ----- ------------  ---------------
    12      1.688737  1 O  px                49     -1.378509  1 O  fxyy       
    32     -1.155380  1 O  dxz               51      1.144544  1 O  fxzz       
    63     -0.998019  2 H  px                88     -0.998019  3 H  px         
    71      0.900904  2 H  dxz               96      0.900904  3 H  dxz        
    70      0.839909  2 H  dxy               95     -0.839909  3 H  dxy        

 Vector   72  Occ=0.000000D+00  E= 3.995979D+00
              MO Center=  3.7D-15,  9.4D-13, -5.5D-01, r^2= 1.4D+00
   Bfn.  Coefficient  Atom+Function         Bfn.  Coefficient  Atom+Function  
  ----- ------------  ---------------      ----- ------------  ---------------
    31      2.106291  1 O  dxy               63     -1.641270  2 H  px         
    88      1.641270  3 H  px                60      0.880138  2 H  px         
    85     -0.880138  3 H  px                77     -0.861735  2 H  dxz        
   102      0.861735  3 H  dxz               70      0.826315  2 H  dxy        
    95      0.826315  3 H  dxy               40     -0.732660  1 O  fxyz       

 Vector   73  Occ=0.000000D+00  E= 4.005744D+00
              MO Center= -2.0D-14, -1.2D-12, -6.3D-01, r^2= 1.2D+00
   Bfn.  Coefficient  Atom+Function         Bfn.  Coefficient  Atom+Function  
  ----- ------------  ---------------      ----- ------------  ---------------
    12      2.130805  1 O  px                63     -1.601029  2 H  px         
    88     -1.601029  3 H  px                32     -1.505921  1 O  dxz        
    49      1.291631  1 O  fxyy              71     -1.095392  2 H  dxz        
    96     -1.095392  3 H  dxz               76      0.780560  2 H  dxy        
   101     -0.780560  3 H  dxy               60      0.741764  2 H  px         

 Vector   74  Occ=0.000000D+00  E= 4.065220D+00
              MO Center=  6.4D-16,  1.6D-12, -5.7D-01, r^2= 1.6D+00
   Bfn.  Coefficient  Atom+Function         Bfn.  Coefficient  Atom+Function  
  ----- ------------  ---------------      ----- ------------  ---------------
    14      4.202265  1 O  pz                 4     -2.362994  1 O  s          
    35     -2.285190  1 O  dzz               57      1.847236  2 H  s          
    82      1.847236  3 H  s                 64     -1.741893  2 H  py         
    89      1.741893  3 H  py                65     -1.568391  2 H  pz         
    90     -1.568391  3 H  pz                58     -1.073920  2 H  s          

 Vector   75  Occ=0.000000D+00  E= 4.169656D+00
              MO Center= -1.5D-15, -1.5D-12, -5.2D-01, r^2= 1.4D+00
   Bfn.  Coefficient  Atom+Function         Bfn.  Coefficient  Atom+Function  
  ----- ------------  ---------------      ----- ------------  ---------------
    13      8.071885  1 O  py                57     -4.579700  2 H  s          
    82      4.579700  3 H  s                 34     -3.931981  1 O  dyz        
    65     -1.660179  2 H  pz                90      1.660179  3 H  pz         
    52     -1.459530  1 O  fyyy              75     -1.209592  2 H  dxx        
   100      1.209592  3 H  dxx               80     -1.033833  2 H  dzz        

 Vector   76  Occ=0.000000D+00  E= 4.565213D+00
              MO Center=  1.5D-16, -5.5D-14, -3.7D-01, r^2= 1.5D+00
   Bfn.  Coefficient  Atom+Function         Bfn.  Coefficient  Atom+Function  
  ----- ------------  ---------------      ----- ------------  ---------------
    54      2.231657  1 O  fyzz              64     -1.855652  2 H  py         
    89     -1.855652  3 H  py                52      1.714473  1 O  fyyy       
    10     -1.305165  1 O  py                13     -1.295219  1 O  py         
    78      1.205609  2 H  dyy              103     -1.205609  3 H  dyy        
    58      1.111120  2 H  s                 83     -1.111120  3 H  s          

 Vector   77  Occ=0.000000D+00  E= 4.570069D+00
              MO Center= -2.7D-14, -4.5D-14, -2.6D-01, r^2= 1.3D+00
   Bfn.  Coefficient  Atom+Function         Bfn.  Coefficient  Atom+Function  
  ----- ------------  ---------------      ----- ------------  ---------------
    49      3.408824  1 O  fxyy              51      2.857180  1 O  fxzz       
    26     -2.001310  1 O  dxz               63     -1.572079  2 H  px         
    88     -1.572079  3 H  px                70      1.421059  2 H  dxy        
    95     -1.421059  3 H  dxy               46      1.090201  1 O  fxxx       
    32     -1.061618  1 O  dxz                6      0.838298  1 O  px         

 Vector   78  Occ=0.000000D+00  E= 4.634457D+00
              MO Center=  8.1D-14, -1.8D-13, -4.9D-01, r^2= 1.7D+00
   Bfn.  Coefficient  Atom+Function         Bfn.  Coefficient  Atom+Function  
  ----- ------------  ---------------      ----- ------------  ---------------
     4     13.599797  1 O  s                 57     -4.866342  2 H  s          
    82     -4.866342  3 H  s                 53     -4.333066  1 O  fyyz       
    30     -3.702810  1 O  dxx                5      3.448379  1 O  s          
    24     -3.361790  1 O  dxx               33     -3.245259  1 O  dyy        
    35     -2.713200  1 O  dzz               58     -2.556811  2 H  s          

 Vector   79  Occ=0.000000D+00  E= 4.705595D+00
              MO Center=  9.3D-16,  2.7D-14, -3.8D-01, r^2= 1.2D+00
   Bfn.  Coefficient  Atom+Function         Bfn.  Coefficient  Atom+Function  
  ----- ------------  ---------------      ----- ------------  ---------------
    50      5.156203  1 O  fxyz              25     -3.030751  1 O  dxy        
    63      1.667883  2 H  px                88     -1.667883  3 H  px         
    31     -1.498405  1 O  dxy               70     -1.480286  2 H  dxy        
    95     -1.480286  3 H  dxy               71      1.338078  2 H  dxz        
    96     -1.338078  3 H  dxz               40     -0.658145  1 O  fxyz       

 Vector   80  Occ=0.000000D+00  E= 4.752561D+00
              MO Center=  3.6D-15, -2.5D-13, -4.5D-01, r^2= 1.4D+00
   Bfn.  Coefficient  Atom+Function         Bfn.  Coefficient  Atom+Function  
  ----- ------------  ---------------      ----- ------------  ---------------
    54      3.690479  1 O  fyzz              65      1.979330  2 H  pz         
    90     -1.979330  3 H  pz                52     -1.811990  1 O  fyyy       
    28     -1.511176  1 O  dyz               74      1.332051  2 H  dzz        
    99     -1.332051  3 H  dzz               64      1.274775  2 H  py         
    89      1.274775  3 H  py                13     -1.152813  1 O  py         

 Vector   81  Occ=0.000000D+00  E= 5.033804D+00
              MO Center= -2.7D-15, -1.0D-12, -4.6D-01, r^2= 1.4D+00
   Bfn.  Coefficient  Atom+Function         Bfn.  Coefficient  Atom+Function  
  ----- ------------  ---------------      ----- ------------  ---------------
    57     10.170016  2 H  s                 82    -10.170016  3 H  s          
    28      4.703195  1 O  dyz               64     -4.650315  2 H  py         
    89     -4.650315  3 H  py                52     -4.366503  1 O  fyyy       
    10     -4.289452  1 O  py                65      4.193112  2 H  pz         
    90     -4.193112  3 H  pz                47     -3.721920  1 O  fxxy       

 Vector   82  Occ=0.000000D+00  E= 5.099117D+00
              MO Center=  2.3D-15,  2.0D-12, -1.5D-01, r^2= 1.1D+00
   Bfn.  Coefficient  Atom+Function         Bfn.  Coefficient  Atom+Function  
  ----- ------------  ---------------      ----- ------------  ---------------
    14      3.790572  1 O  pz                 4      3.623374  1 O  s          
    55     -3.584005  1 O  fzzz              58      3.035567  2 H  s          
    83      3.035567  3 H  s                  5     -2.932835  1 O  s          
    33     -2.716610  1 O  dyy               48     -2.423129  1 O  fxxz       
    64      1.918605  2 H  py                89     -1.918605  3 H  py         

 Vector   83  Occ=0.000000D+00  E= 5.146799D+00
              MO Center= -8.1D-14,  4.9D-15, -1.8D-01, r^2= 9.0D-01
   Bfn.  Coefficient  Atom+Function         Bfn.  Coefficient  Atom+Function  
  ----- ------------  ---------------      ----- ------------  ---------------
     9      2.364701  1 O  px                12      2.376380  1 O  px         
    46     -1.846233  1 O  fxxx              26     -1.289155  1 O  dxz        
     6     -1.225422  1 O  px                70      1.013520  2 H  dxy        
    95     -1.013520  3 H  dxy               63     -0.884758  2 H  px         
    88     -0.884758  3 H  px                32     -0.724511  1 O  dxz        

 Vector   84  Occ=0.000000D+00  E= 5.448468D+00
              MO Center= -1.2D-15, -2.0D-13, -4.1D-01, r^2= 1.1D+00
   Bfn.  Coefficient  Atom+Function         Bfn.  Coefficient  Atom+Function  
  ----- ------------  ---------------      ----- ------------  ---------------
    27      3.624613  1 O  dyy               57     -2.528344  2 H  s          
    82     -2.528344  3 H  s                 53     -2.377515  1 O  fyyz       
    48     -2.301080  1 O  fxxz              65     -2.180435  2 H  pz         
    90     -2.180435  3 H  pz                 3      1.680300  1 O  s          
    33      1.438320  1 O  dyy               24      1.426845  1 O  dxx        

 Vector   85  Occ=0.000000D+00  E= 5.596191D+00
              MO Center= -5.3D-15, -7.6D-13, -2.0D-01, r^2= 1.5D+00
   Bfn.  Coefficient  Atom+Function         Bfn.  Coefficient  Atom+Function  
  ----- ------------  ---------------      ----- ------------  ---------------
    58      9.692063  2 H  s                 83     -9.692063  3 H  s          
    57      8.402727  2 H  s                 82     -8.402727  3 H  s          
    13     -6.957165  1 O  py                34      2.679883  1 O  dyz        
    10     -2.407690  1 O  py                65      1.784109  2 H  pz         
    67     -1.784487  2 H  py                90     -1.784109  3 H  pz         

 Vector   86  Occ=0.000000D+00  E= 5.744465D+00
              MO Center= -9.4D-15,  4.4D-13, -3.0D-01, r^2= 1.8D+00
   Bfn.  Coefficient  Atom+Function         Bfn.  Coefficient  Atom+Function  
  ----- ------------  ---------------      ----- ------------  ---------------
    57      8.547569  2 H  s                 82      8.547569  3 H  s          
    58      8.267773  2 H  s                 83      8.267773  3 H  s          
     5     -6.545013  1 O  s                 29     -4.613922  1 O  dzz        
    27     -4.486395  1 O  dyy               14      3.826576  1 O  pz         
     3     -3.727078  1 O  s                 24     -3.429296  1 O  dxx        

 Vector   87  Occ=0.000000D+00  E= 6.131353D+00
              MO Center= -2.3D-15, -1.3D-15, -3.1D-02, r^2= 6.2D-01
   Bfn.  Coefficient  Atom+Function         Bfn.  Coefficient  Atom+Function  
  ----- ------------  ---------------      ----- ------------  ---------------
    41      2.835054  1 O  fxzz              51     -1.821518  1 O  fxzz       
    39     -1.747529  1 O  fxyy              49      0.880082  1 O  fxyy       
    32      0.645503  1 O  dxz               36     -0.350009  1 O  fxxx       
    76     -0.336464  2 H  dxy              101      0.336464  3 H  dxy        
    12     -0.297272  1 O  px                63      0.271825  2 H  px         

 Vector   88  Occ=0.000000D+00  E= 6.295490D+00
              MO Center=  3.0D-15,  1.6D-13, -9.3D-02, r^2= 8.5D-01
   Bfn.  Coefficient  Atom+Function         Bfn.  Coefficient  Atom+Function  
  ----- ------------  ---------------      ----- ------------  ---------------
     4      4.574217  1 O  s                 14     -3.701950  1 O  pz         
    57     -2.901763  2 H  s                 82     -2.901763  3 H  s          
    38     -2.749243  1 O  fxxz              48      2.069970  1 O  fxxz       
    53     -1.927849  1 O  fyyz              33      1.764863  1 O  dyy        
    58      1.743912  2 H  s                 83      1.743912  3 H  s          

 Vector   89  Occ=0.000000D+00  E= 6.304996D+00
              MO Center=  1.4D-15, -1.3D-13, -1.3D-01, r^2= 1.0D+00
   Bfn.  Coefficient  Atom+Function         Bfn.  Coefficient  Atom+Function  
  ----- ------------  ---------------      ----- ------------  ---------------
    13      4.618321  1 O  py                58      3.788159  2 H  s          
    83     -3.788159  3 H  s                 34     -3.121428  1 O  dyz        
    47     -3.001401  1 O  fxxy              37      2.716307  1 O  fxxy       
    75     -1.560484  2 H  dxx              100      1.560484  3 H  dxx        
    80     -1.340943  2 H  dzz              105      1.340943  3 H  dzz        

 Vector   90  Occ=0.000000D+00  E= 6.541007D+00
              MO Center= -1.1D-14,  8.0D-15, -3.9D-02, r^2= 6.7D-01
   Bfn.  Coefficient  Atom+Function         Bfn.  Coefficient  Atom+Function  
  ----- ------------  ---------------      ----- ------------  ---------------
    39      2.474270  1 O  fxyy              26     -1.452984  1 O  dxz        
    41      1.265026  1 O  fxzz              36     -1.014956  1 O  fxxx       
    20      0.800841  1 O  dxz               12     -0.791340  1 O  px         
    32      0.764235  1 O  dxz               70      0.723957  2 H  dxy        
    95     -0.723957  3 H  dxy               46      0.572302  1 O  fxxx       

 Vector   91  Occ=0.000000D+00  E= 6.545624D+00
              MO Center=  2.1D-14,  3.1D-15, -2.8D-01, r^2= 1.2D+00
   Bfn.  Coefficient  Atom+Function         Bfn.  Coefficient  Atom+Function  
  ----- ------------  ---------------      ----- ------------  ---------------
    58      3.771388  2 H  s                 83      3.771388  3 H  s          
     5     -3.282281  1 O  s                 53     -2.573171  1 O  fyyz       
    14     -2.319790  1 O  pz                 4      2.176409  1 O  s          
    33      2.149870  1 O  dyy               43      1.838856  1 O  fyyz       
    75     -1.680984  2 H  dxx              100     -1.680984  3 H  dxx        

 Vector   92  Occ=0.000000D+00  E= 6.638605D+00
              MO Center= -1.4D-14, -2.3D-14, -5.4D-02, r^2= 5.1D-01
   Bfn.  Coefficient  Atom+Function         Bfn.  Coefficient  Atom+Function  
  ----- ------------  ---------------      ----- ------------  ---------------
    20      1.991802  1 O  dxz               26     -1.770047  1 O  dxz        
    49      1.362545  1 O  fxyy              39     -1.271785  1 O  fxyy       
    12      1.218883  1 O  px                63     -0.916858  2 H  px         
    88     -0.916858  3 H  px                51      0.641206  1 O  fxzz       
    76      0.570370  2 H  dxy              101     -0.570370  3 H  dxy        

 Vector   93  Occ=0.000000D+00  E= 6.698834D+00
              MO Center=  2.8D-15,  2.5D-14, -8.5D-02, r^2= 5.1D-01
   Bfn.  Coefficient  Atom+Function         Bfn.  Coefficient  Atom+Function  
  ----- ------------  ---------------      ----- ------------  ---------------
    50      2.344271  1 O  fxyz              19      2.078956  1 O  dxy        
    25     -2.087627  1 O  dxy               40     -1.599653  1 O  fxyz       
    63      0.978713  2 H  px                88     -0.978713  3 H  px         
    76     -0.711800  2 H  dxy              101     -0.711800  3 H  dxy        
    31     -0.646494  1 O  dxy               77      0.443611  2 H  dxz        

 Vector   94  Occ=0.000000D+00  E= 6.719184D+00
              MO Center=  2.2D-15, -1.0D-14, -3.8D-02, r^2= 6.9D-01
   Bfn.  Coefficient  Atom+Function         Bfn.  Coefficient  Atom+Function  
  ----- ------------  ---------------      ----- ------------  ---------------
    40      4.923786  1 O  fxyz              25     -1.855098  1 O  dxy        
    50     -0.967666  1 O  fxyz              70     -0.756725  2 H  dxy        
    95     -0.756725  3 H  dxy               31      0.713657  1 O  dxy        
    19      0.698540  1 O  dxy               71      0.656867  2 H  dxz        
    96     -0.656867  3 H  dxz               60      0.452429  2 H  px         

 Vector   95  Occ=0.000000D+00  E= 6.850783D+00
              MO Center=  1.4D-15,  3.2D-13, -8.6D-02, r^2= 8.6D-01
[...]
    82     -2.701447  3 H  s                 29     -2.640543  1 O  dzz        
     3     -2.406186  1 O  s                 30     -1.981772  1 O  dxx        
    35     -1.951221  1 O  dzz               21     -1.571324  1 O  dyy        

 Vector   98  Occ=0.000000D+00  E= 8.025704D+00
              MO Center=  7.1D-18,  3.6D-10, -8.0D-02, r^2= 6.4D-01
   Bfn.  Coefficient  Atom+Function         Bfn.  Coefficient  Atom+Function  
  ----- ------------  ---------------      ----- ------------  ---------------
    54     -3.585373  1 O  fyzz              28      3.343778  1 O  dyz        
    13      2.389270  1 O  py                22     -2.388643  1 O  dyz        
    58     -2.383726  2 H  s                 83      2.383726  3 H  s          
    52     -1.458810  1 O  fyyy              56      1.183177  2 H  s          
    81     -1.183177  3 H  s                 47     -0.830977  1 O  fxxy       

 Vector   99  Occ=0.000000D+00  E= 8.265946D+00
              MO Center=  5.8D-16, -1.3D-09, -1.9D-01, r^2= 1.2D+00
   Bfn.  Coefficient  Atom+Function         Bfn.  Coefficient  Atom+Function  
  ----- ------------  ---------------      ----- ------------  ---------------
    27      6.362289  1 O  dyy               53     -4.475369  1 O  fyyz       
     4      3.981628  1 O  s                 43     -3.502785  1 O  fyyz       
    29      3.337858  1 O  dzz               57     -3.034408  2 H  s          
    82     -3.034408  3 H  s                 58      2.595272  2 H  s          
    83      2.595272  3 H  s                 11     -2.562675  1 O  pz         

 Vector  100  Occ=0.000000D+00  E= 8.982320D+00
              MO Center= -1.4D-16,  2.1D-09, -4.2D-01, r^2= 1.4D+00
   Bfn.  Coefficient  Atom+Function         Bfn.  Coefficient  Atom+Function  
  ----- ------------  ---------------      ----- ------------  ---------------
    28      8.460501  1 O  dyz               54     -4.842499  1 O  fyzz       
    10     -4.171356  1 O  py                57      3.730907  2 H  s          
    82     -3.730907  3 H  s                 58     -3.648060  2 H  s          
    83      3.648059  3 H  s                 44     -3.399554  1 O  fyzz       
    64     -3.228255  2 H  py                89     -3.228255  3 H  py         

 Vector  101  Occ=0.000000D+00  E= 1.292542D+01
              MO Center=  1.1D-14,  1.9D-10,  1.3D-02, r^2= 1.4D+00
   Bfn.  Coefficient  Atom+Function         Bfn.  Coefficient  Atom+Function  
  ----- ------------  ---------------      ----- ------------  ---------------
     9     16.324517  1 O  px                36     -8.200594  1 O  fxxx       
    41     -8.061684  1 O  fxzz              39     -7.971232  1 O  fxyy       
    49     -4.576955  1 O  fxyy              46     -4.549443  1 O  fxxx       
    51     -4.544003  1 O  fxzz              12      3.599320  1 O  px         
     6     -3.171645  1 O  px                15     -0.235511  1 O  px         

 Vector  102  Occ=0.000000D+00  E= 1.411595D+01
              MO Center= -1.4D-15, -3.1D-11, -9.3D-02, r^2= 1.2D+00
   Bfn.  Coefficient  Atom+Function         Bfn.  Coefficient  Atom+Function  
  ----- ------------  ---------------      ----- ------------  ---------------
    11     15.128949  1 O  pz                43     -9.030060  1 O  fyyz       
    45     -8.277009  1 O  fzzz              38     -8.199998  1 O  fxxz       
     4      7.009714  1 O  s                 14      6.697904  1 O  pz         
    48     -6.274667  1 O  fxxz              55     -6.158291  1 O  fzzz       
    53     -5.478405  1 O  fyyz               8     -3.309163  1 O  pz         

 Vector  103  Occ=0.000000D+00  E= 1.475076D+01
              MO Center=  1.1D-16,  3.1D-10, -1.5D-02, r^2= 1.3D+00
   Bfn.  Coefficient  Atom+Function         Bfn.  Coefficient  Atom+Function  
  ----- ------------  ---------------      ----- ------------  ---------------
    10     17.751976  1 O  py                13      9.662237  1 O  py         
    37     -9.041152  1 O  fxxy              42     -8.804065  1 O  fyyy       
    44     -8.837170  1 O  fyzz              47     -6.641338  1 O  fxxy       
    52     -6.301039  1 O  fyyy              54     -4.963525  1 O  fyzz       
    58     -4.906068  2 H  s                 83      4.906068  3 H  s          

 Vector  104  Occ=0.000000D+00  E= 1.560833D+01
              MO Center= -1.2D-15,  1.0D-09, -2.4D-01, r^2= 1.5D+00
   Bfn.  Coefficient  Atom+Function         Bfn.  Coefficient  Atom+Function  
  ----- ------------  ---------------      ----- ------------  ---------------
     2     12.639243  1 O  s                  4      8.776191  1 O  s          
    11     -7.750084  1 O  pz                 1      6.809567  1 O  s          
    14     -4.839953  1 O  pz                57     -4.733377  2 H  s          
    82     -4.733377  3 H  s                 38      3.174852  1 O  fxxz       
     3     -2.764264  1 O  s                 45      2.573696  1 O  fzzz       

 Vector  105  Occ=0.000000D+00  E= 1.678082D+01
              MO Center= -9.8D-16,  2.7D-10, -2.1D-03, r^2= 5.0D-01
   Bfn.  Coefficient  Atom+Function         Bfn.  Coefficient  Atom+Function  
  ----- ------------  ---------------      ----- ------------  ---------------
     4     12.572499  1 O  s                  2     11.519458  1 O  s          
    24     -5.681661  1 O  dxx               29     -5.301848  1 O  dzz        
    27     -4.993974  1 O  dyy                1      4.511986  1 O  s          
    18     -4.091747  1 O  dxx               23     -3.994344  1 O  dzz        
    21     -3.938697  1 O  dyy               33     -2.237821  1 O  dyy        


 center of mass
 --------------
 x =  -0.00000000 y =   0.00000000 z =  -0.12641593

 moments of inertia (a.u.)
 ------------------
           6.487334608007          -0.000000000000           0.000000000000
          -0.000000000000           2.270849704752          -0.000000001484
           0.000000000000          -0.000000001484           4.216484903256

     Multipole analysis of the density
     ---------------------------------

     L   x y z        total         alpha         beta         nuclear
     -   - - -        -----         -----         ----         -------
     0   0 0 0     -0.000000     -5.000000     -5.000000     10.000000

     1   1 0 0     -0.000000     -0.000000     -0.000000     -0.000000
     1   0 1 0     -0.000000     -0.000000     -0.000000      0.000000
     1   0 0 1     -0.705844      0.775215      0.775215     -2.256274

     2   2 0 0     -5.876677     -2.938338     -2.938338      0.000000
     2   1 1 0      0.000000      0.000000      0.000000      0.000000
     2   1 0 1      0.000000      0.000000      0.000000     -0.000000
     2   0 2 0     -3.393031     -3.788389     -3.788389      4.183747
     2   0 1 1      0.000000     -0.000000     -0.000000      0.000000
     2   0 0 2     -4.555897     -3.547353     -3.547353      2.538809

 Line search: 
     step= 1.00 grad=-1.9D-07 hess=-6.3D-07 energy=    -76.381621 mode=accept  
 new step= 1.00                   predicted energy=    -76.381621

          --------
          Step   2
          --------


                         Geometry "geometry" -> "geometry"
                         ---------------------------------

 Output coordinates in angstroms (scale by  1.889725989 to convert to a.u.)

  No.       Tag          Charge          X              Y              Z
 ---- ---------------- ---------- -------------- -------------- --------------
    1 O                    8.0000    -0.00000000     0.00000000    -0.00019297
    2 H                    1.0000     0.00000000     0.76536549    -0.59621252
    3 H                    1.0000    -0.00000000    -0.76536549    -0.59621252

      Atomic Mass 
      ----------- 

      O                 15.994910
      H                  1.007825


 Effective nuclear repulsion energy (a.u.)       9.0738257479

            Nuclear Dipole moment (a.u.) 
            ----------------------------
        X                 Y               Z
 ---------------- ---------------- ----------------
    -0.0000000000     0.0000000025    -2.2562737933


                                 NWChem DFT Module
                                 -----------------




 Summary of "ao basis" -> "ao basis" (cartesian)
 ------------------------------------------------------------------------------
       Tag                 Description            Shells   Functions and Types
 ---------------- ------------------------------  ------  ---------------------
 O                        aug-cc-pVTZ               14       55   5s4p3d2f
 H                        aug-cc-pVTZ                9       25   4s3p2d



  The DFT is already converged 

         Total DFT energy =    -76.381620976551


            General Information
            -------------------
          SCF calculation type: DFT
          Wavefunction type:  closed shell.
          No. of atoms     :     3
          No. of electrons :    10
           Alpha electrons :     5
            Beta electrons :     5
          Charge           :     0
          Spin multiplicity:     1
          Use of symmetry is: off; symmetry adaption is: off
          Maximum number of iterations: 200
          AO basis - number of functions:   105
                     number of shells:    32
          Convergence on energy requested:  1.00D-06
          Convergence on density requested:  1.00D-05
          Convergence on gradient requested:  5.00D-04

              XC Information
              --------------
          PerdewBurkeErnzerhof Exchange Functional  1.000          
            Perdew 1991 LDA Correlation Functional  1.000 local    
           PerdewBurkeErnz. Correlation Functional  1.000 non-local

             Grid Information
             ----------------
          Grid used for XC integration:  medium    
          Radial quadrature: Mura-Knowles        
          Angular quadrature: Lebedev. 
          Tag              B.-S. Rad. Rad. Pts. Rad. Cut. Ang. Pts.
          ---              ---------- --------- --------- ---------
          O                   0.60       49          10.0       434
          H                   0.35       45          12.0       434
          Grid pruning is: on 
          Number of quadrature shells:   139
          Spatial weights used:  Erf1

          Convergence Information
          -----------------------
          Convergence aids based upon iterative change in 
          total energy or number of iterations. 
          Levelshifting, if invoked, occurs when the 
          HOMO/LUMO gap drops below (HL_TOL):  1.00D-02
          DIIS, if invoked, will attempt to extrapolate 
          using up to (NFOCK): 10 stored Fock matrices.

                    Damping(40%)  Levelshifting(0.0)       DIIS
                  --------------- ------------------- ---------------
          dE  on:    start            ASAP                start   
          dE off:  200 iters        200 iters           200 iters 


      Screening Tolerance Information
      -------------------------------
          Density screening/tol_rho:  1.00D-10
          AO Gaussian exp screening on grid/accAOfunc:  14
          CD Gaussian exp screening on grid/accCDfunc:  20
          XC Gaussian exp screening on grid/accXCfunc:  20
          Schwarz screening/accCoul:  1.00D-08



                            NWChem DFT Gradient Module
                            --------------------------



  charge          =   0.00
  wavefunction    = closed shell



                         DFT ENERGY GRADIENTS

    atom               coordinates                        gradient
                 x          y          z           x          y          z
   1 O      -0.000000   0.000000  -0.000365    0.000000  -0.000000   0.000040
   2 H       0.000000   1.446331  -1.126678   -0.000000   0.000021  -0.000020
   3 H      -0.000000  -1.446331  -1.126678    0.000000  -0.000021  -0.000020

                 ----------------------------------------
                 |  Time  |  1-e(secs)   |  2-e(secs)   |
                 ----------------------------------------
                 |  CPU   |       0.00   |       0.21   |
                 ----------------------------------------
                 |  WALL  |       0.00   |       0.21   |
                 ----------------------------------------

  Step       Energy      Delta E   Gmax     Grms     Xrms     Xmax   Walltime
  ---- ---------------- -------- -------- -------- -------- -------- --------
@    2     -76.38162098 -8.2D-07  0.00004  0.00002  0.00030  0.00062     10.1
                                     ok       ok       ok       ok  


      ----------------------
      Optimization converged
      ----------------------


  Step       Energy      Delta E   Gmax     Grms     Xrms     Xmax   Walltime
  ---- ---------------- -------- -------- -------- -------- -------- --------
@    2     -76.38162098 -8.2D-07  0.00004  0.00002  0.00030  0.00062     10.1
                                     ok       ok       ok       ok  



                         Geometry "geometry" -> "geometry"
                         ---------------------------------

 Output coordinates in angstroms (scale by  1.889725989 to convert to a.u.)

  No.       Tag          Charge          X              Y              Z
 ---- ---------------- ---------- -------------- -------------- --------------
    1 O                    8.0000    -0.00000000     0.00000000    -0.00019297
    2 H                    1.0000     0.00000000     0.76536549    -0.59621252
    3 H                    1.0000    -0.00000000    -0.76536549    -0.59621252

      Atomic Mass 
      ----------- 

      O                 15.994910
      H                  1.007825


 Effective nuclear repulsion energy (a.u.)       9.0738257479

            Nuclear Dipole moment (a.u.) 
            ----------------------------
        X                 Y               Z
 ---------------- ---------------- ----------------
    -0.0000000000     0.0000000025    -2.2562737933

 ==============================================================================
                                internuclear distances
 ------------------------------------------------------------------------------
       center one      |      center two      | atomic units |  angstroms
 ------------------------------------------------------------------------------
    2 H                |   1 O                |     1.83315  |     0.97006
    3 H                |   1 O                |     1.83315  |     0.97006
 ------------------------------------------------------------------------------
                         number of included internuclear distances:          2
 ==============================================================================



 ==============================================================================
                                 internuclear angles
 ------------------------------------------------------------------------------
        center 1       |       center 2       |       center 3       |  degrees
 ------------------------------------------------------------------------------
    2 H                |   1 O                |   3 H                |   104.18
 ------------------------------------------------------------------------------
                            number of included internuclear angles:          1
 ==============================================================================




 Task  times  cpu:        9.3s     wall:        9.8s


                                NWChem Input Module
                                -------------------


 Summary of allocated global arrays
-----------------------------------
  No active global arrays


MA_summarize_allocated_blocks: starting scan ...
MA_summarize_allocated_blocks: scan completed: 0 heap blocks, 0 stack blocks
MA usage statistics:

	allocation statistics:
					      heap	     stack
					      ----	     -----
	current number of blocks	         0	         0
	maximum number of blocks	        24	        53
	current total bytes		         0	         0
	maximum total bytes		 268758872	  42381272
	maximum total K-bytes		    268759	     42382
	maximum total M-bytes		       269	        43


                                     CITATION
                                     --------
                Please cite the following reference when publishing
                           results obtained with NWChem:

          E. Apra, E. J. Bylaska, W. A. de Jong, N. Govind, K. Kowalski,
       T. P. Straatsma, M. Valiev, H. J. J. van Dam, Y. Alexeev, J. Anchell,
       V. Anisimov, F. W. Aquino, R. Atta-Fynn, J. Autschbach, N. P. Bauman,
     J. C. Becca, D. E. Bernholdt, K. Bhaskaran-Nair, S. Bogatko, P. Borowski,
         J. Boschen, J. Brabec, A. Bruner, E. Cauet, Y. Chen, G. N. Chuev,
      C. J. Cramer, J. Daily, M. J. O. Deegan, T. H. Dunning Jr., M. Dupuis,
   K. G. Dyall, G. I. Fann, S. A. Fischer, A. Fonari, H. Fruchtl, L. Gagliardi,
      J. Garza, N. Gawande, S. Ghosh, K. Glaesemann, A. W. Gotz, J. Hammond,
       V. Helms, E. D. Hermes, K. Hirao, S. Hirata, M. Jacquelin, L. Jensen,
   B. G. Johnson, H. Jonsson, R. A. Kendall, M. Klemm, R. Kobayashi, V. Konkov,
      S. Krishnamoorthy, M. Krishnan, Z. Lin, R. D. Lins, R. J. Littlefield,
      A. J. Logsdail, K. Lopata, W. Ma, A. V. Marenich, J. Martin del Campo,
   D. Mejia-Rodriguez, J. E. Moore, J. M. Mullin, T. Nakajima, D. R. Nascimento,
    J. A. Nichols, P. J. Nichols, J. Nieplocha, A. Otero-de-la-Roza, B. Palmer,
    A. Panyala, T. Pirojsirikul, B. Peng, R. Peverati, J. Pittner, L. Pollack,
   R. M. Richard, P. Sadayappan, G. C. Schatz, W. A. Shelton, D. W. Silverstein,
   D. M. A. Smith, T. A. Soares, D. Song, M. Swart, H. L. Taylor, G. S. Thomas,
            V. Tipparaju, D. G. Truhlar, K. Tsemekhman, T. Van Voorhis,
      A. Vazquez-Mayagoitia, P. Verma, O. Villa, A. Vishnu, K. D. Vogiatzis,
        D. Wang, J. H. Weare, M. J. Williamson, T. L. Windus, K. Wolinski,
        A. T. Wong, Q. Wu, C. Yang, Q. Yu, M. Zacharias, Z. Zhang, Y. Zhao,
                                and R. J. Harrison
                        "NWChem: Past, present, and future
                         J. Chem. Phys. 152, 184102 (2020)
                               doi:10.1063/5.0004997

                                      AUTHORS
                                      -------
  E. Apra, E. J. Bylaska, N. Govind, K. Kowalski, M. Valiev, D. Mejia-Rodriguez,
       A. Kunitsa, N. P. Bauman, A. Panyala, W. A. de Jong, T. P. Straatsma,
   H. J. J. van Dam, D. Wang, T. L. Windus, J. Hammond, J. Autschbach, A. Woods,
    K. Bhaskaran-Nair, J. Brabec, K. Lopata, S. A. Fischer, S. Krishnamoorthy,
     M. Jacquelin, W. Ma, M. Klemm, O. Villa, Y. Chen, V. Anisimov, F. Aquino,
     S. Hirata, M. T. Hackler, E. Hermes, L. Jensen, J. E. Moore, J. C. Becca,
      V. Konjkov, T. Risthaus, M. Malagoli, A. Marenich, A. Otero-de-la-Roza,
        J. Mullin, P. Nichols, R. Peverati, J. Pittner, Y. Zhao, P.-D. Fan,
        A. Fonari, M. J. Williamson, R. J. Harrison, J. R. Rehr, M. Dupuis,
     D. Silverstein, D. M. A. Smith, J. Nieplocha, V. Tipparaju, M. Krishnan,
     B. E. Van Kuiken, A. Vazquez-Mayagoitia, M. Swart, Q. Wu, T. Van Voorhis,
     A. A. Auer, M. Nooijen, L. D. Crosby, E. Brown, G. Cisneros, G. I. Fann,
   H. Fruchtl, J. Garza, K. Hirao, R. A. Kendall, J. A. Nichols, K. Tsemekhman,
    K. Wolinski, J. Anchell, D. E. Bernholdt, P. Borowski, T. Clark, D. Clerc,
   H. Dachsel, M. J. O. Deegan, K. Dyall, D. Elwood, E. Glendening, M. Gutowski,
   A. C. Hess, J. Jaffe, B. G. Johnson, J. Ju, R. Kobayashi, R. Kutteh, Z. Lin,
   R. Littlefield, X. Long, B. Meng, T. Nakajima, S. Niu, L. Pollack, M. Rosing,
   K. Glaesemann, G. Sandrone, M. Stave, H. Taylor, G. Thomas, J. H. van Lenthe,
                               A. T. Wong, Z. Zhang.

 Total times  cpu:        9.5s     wall:       10.1s
