 argument  1 = 0e/mol.nwi
                                         
                                         


             Northwest Computational Chemistry Package (NWChem) 7.2.2
             --------------------------------------------------------


                    Environmental Molecular Sciences Laboratory
                       Pacific Northwest National Laboratory
                                Richland, WA 99352

                              Copyright (c) 1994-2022
                       Pacific Northwest National Laboratory
                            Battelle Memorial Institute

             NWChem is an open-source computational chemistry package
                        distributed under the terms of the
                      Educational Community License (ECL) 2.0
             A copy of the license is included with this distribution
                              in the LICENSE.TXT file

                                  ACKNOWLEDGMENT
                                  --------------

            This software and its documentation were developed at the
            EMSL at Pacific Northwest National Laboratory, a multiprogram
            national laboratory, operated for the U.S. Department of Energy
            by Battelle under Contract Number DE-AC05-76RL01830. Support
            for this work was provided by the Department of Energy Office
            of Biological and Environmental Research, Office of Basic
            Energy Sciences, and the Office of Advanced Scientific Computing.


           Job information
           ---------------

    hostname        = r005.ib.bridges2.psc.edu
    program         = nwchem
    date            = Tue Oct  1 14:31:21 2024

    compiled        = Mon_Mar_18_17:03:37_2024
    source          = /ocean/projects/pscstaff/mmadrid/nwchem-7.2.2
    nwchem branch   = 7.2.2
    nwchem revision = 74936fb9
    ga revision     = 5.8.0
    use scalapack   = F
    input           = 0e/mol.nwi
    prefix          = dft.
    data base       = .//dft.db
    status          = startup
    nproc           =       15
    time left       =     -1s



           Memory information
           ------------------

    heap     =   67108864 doubles =    512.0 Mbytes
    stack    =   67108861 doubles =    512.0 Mbytes
    global   =  134217728 doubles =   1024.0 Mbytes (distinct from heap & stack)
    total    =  268435453 doubles =   2048.0 Mbytes
    verify   = yes
    hardfail = no 


           Directory information
           ---------------------

  0 permanent = ./
  0 scratch   = /jet/home/hmt47/nwchem_scratch/




                                NWChem Input Module
                                -------------------


  library name resolved from: environment
  library file name is: </opt/packages/nwchem/nwchem7.2.2/share/nwchem/libraries/>
  


 Summary of "ao basis" -> "" (cartesian)
 ------------------------------------------------------------------------------
       Tag                 Description            Shells   Functions and Types
 ---------------- ------------------------------  ------  ---------------------
 *                        aug-cc-pVTZ                 on all atoms 


  pbe96 is a nonlocal functional; adding pw91lda local functional. 

 Scaling coordinates for geometry "geometry" by  1.889725989
 (inverse scale =  0.529177249)



                             Geometry "geometry" -> ""
                             -------------------------

 Output coordinates in angstroms (scale by  1.889725989 to convert to a.u.)

  No.       Tag          Charge          X              Y              Z
 ---- ---------------- ---------- -------------- -------------- --------------
    1 N                    7.0000    -0.00043823    -0.00192739    -0.00543460
    2 O                    8.0000    -0.04451030     0.01042904     1.26347332
    3 O                    8.0000     0.56866945     0.94581174    -0.63000995
    4 O                    8.0000    -0.52532392    -0.96181539    -0.64979077

      Atomic Mass 
      ----------- 

      N                 14.003070
      O                 15.994910


 Effective nuclear repulsion energy (a.u.)     116.2168338010

            Nuclear Dipole moment (a.u.) 
            ----------------------------
        X                 Y               Z
 ---------------- ---------------- ----------------
    -0.0234057115    -0.1097715560    -0.3187238309


            XYZ format geometry
            -------------------
     4
 geometry
 N                    -0.00043823    -0.00192739    -0.00543460
 O                    -0.04451030     0.01042904     1.26347332
 O                     0.56866945     0.94581174    -0.63000995
 O                    -0.52532392    -0.96181539    -0.64979077

 ==============================================================================
                                internuclear distances
 ------------------------------------------------------------------------------
       center one      |      center two      | atomic units |  angstroms
 ------------------------------------------------------------------------------
    2 O                |   1 N                |     2.39945  |     1.26973
    3 O                |   1 N                |     2.39942  |     1.26972
    4 O                |   1 N                |     2.39935  |     1.26968
 ------------------------------------------------------------------------------
                         number of included internuclear distances:          3
 ==============================================================================



 ==============================================================================
                                 internuclear angles
 ------------------------------------------------------------------------------
        center 1       |       center 2       |       center 3       |  degrees
 ------------------------------------------------------------------------------
    2 O                |   1 N                |   3 O                |   119.99
    2 O                |   1 N                |   4 O                |   120.01
    3 O                |   1 N                |   4 O                |   120.00
 ------------------------------------------------------------------------------
                            number of included internuclear angles:          3
 ==============================================================================




                                 NWChem DFT Module
                                 -----------------


                      Basis "ao basis" -> "ao basis" (cartesian)
                      -----
  N (Nitrogen)
  ------------
            Exponent  Coefficients 
       -------------- ---------------------------------------------------------
  1 S  1.14200000E+04  0.000523
  1 S  1.71200000E+03  0.004045
  1 S  3.89300000E+02  0.020775
  1 S  1.10000000E+02  0.080727
  1 S  3.55700000E+01  0.233074
  1 S  1.25400000E+01  0.433501
  1 S  4.64400000E+00  0.347472
  1 S  5.11800000E-01 -0.008508

  2 S  1.14200000E+04 -0.000115
  2 S  1.71200000E+03 -0.000895
  2 S  3.89300000E+02 -0.004624
  2 S  1.10000000E+02 -0.018528
  2 S  3.55700000E+01 -0.057339
  2 S  1.25400000E+01 -0.132076
  2 S  4.64400000E+00 -0.172510
  2 S  5.11800000E-01  0.599944

  3 S  1.29300000E+00  1.000000

  4 S  1.78700000E-01  1.000000

  5 S  5.76000000E-02  1.000000

  6 P  2.66300000E+01  0.014670
  6 P  5.94800000E+00  0.091764
  6 P  1.74200000E+00  0.298683

  7 P  5.55000000E-01  1.000000

  8 P  1.72500000E-01  1.000000

  9 P  4.91000000E-02  1.000000

 10 D  1.65400000E+00  1.000000

 11 D  4.69000000E-01  1.000000

 12 D  1.51000000E-01  1.000000

 13 F  1.09300000E+00  1.000000

 14 F  3.64000000E-01  1.000000

  O (Oxygen)
  ----------
            Exponent  Coefficients 
       -------------- ---------------------------------------------------------
  1 S  1.53300000E+04  0.000508
  1 S  2.29900000E+03  0.003929
  1 S  5.22400000E+02  0.020243
  1 S  1.47300000E+02  0.079181
  1 S  4.75500000E+01  0.230687
  1 S  1.67600000E+01  0.433118
  1 S  6.20700000E+00  0.350260
  1 S  6.88200000E-01 -0.008154

  2 S  1.53300000E+04 -0.000115
  2 S  2.29900000E+03 -0.000895
  2 S  5.22400000E+02 -0.004636
  2 S  1.47300000E+02 -0.018724
  2 S  4.75500000E+01 -0.058463
  2 S  1.67600000E+01 -0.136463
  2 S  6.20700000E+00 -0.175740
  2 S  6.88200000E-01  0.603418

  3 S  1.75200000E+00  1.000000

  4 S  2.38400000E-01  1.000000

  5 S  7.37600000E-02  1.000000

  6 P  3.44600000E+01  0.015928
  6 P  7.74900000E+00  0.099740
  6 P  2.28000000E+00  0.310492

  7 P  7.15600000E-01  1.000000

  8 P  2.14000000E-01  1.000000

  9 P  5.97400000E-02  1.000000

 10 D  2.31400000E+00  1.000000

 11 D  6.45000000E-01  1.000000

 12 D  2.14000000E-01  1.000000

 13 F  1.42800000E+00  1.000000

 14 F  5.00000000E-01  1.000000



 Summary of "ao basis" -> "ao basis" (cartesian)
 ------------------------------------------------------------------------------
       Tag                 Description            Shells   Functions and Types
 ---------------- ------------------------------  ------  ---------------------
 N                        aug-cc-pVTZ               14       55   5s4p3d2f
 O                        aug-cc-pVTZ               14       55   5s4p3d2f




 Summary of "ao basis" -> "ao basis" (cartesian)
 ------------------------------------------------------------------------------
       Tag                 Description            Shells   Functions and Types
 ---------------- ------------------------------  ------  ---------------------
 N                        aug-cc-pVTZ               14       55   5s4p3d2f
 O                        aug-cc-pVTZ               14       55   5s4p3d2f


  Caching 1-el integrals 

            General Information
            -------------------
          SCF calculation type: DFT
          Wavefunction type:  spin polarized.
          No. of atoms     :     4
          No. of electrons :    31
           Alpha electrons :    16
            Beta electrons :    15
          Charge           :     0
          Spin multiplicity:     2
          Use of symmetry is: off; symmetry adaption is: off
          Maximum number of iterations: 200
          AO basis - number of functions:   220
                     number of shells:    56
          Convergence on energy requested:  1.00D-06
          Convergence on density requested:  1.00D-05
          Convergence on gradient requested:  5.00D-04

              XC Information
              --------------
          PerdewBurkeErnzerhof Exchange Functional  1.000          
            Perdew 1991 LDA Correlation Functional  1.000 local    
           PerdewBurkeErnz. Correlation Functional  1.000 non-local

             Grid Information
             ----------------
          Grid used for XC integration:  medium    
          Radial quadrature: Mura-Knowles        
          Angular quadrature: Lebedev. 
          Tag              B.-S. Rad. Rad. Pts. Rad. Cut. Ang. Pts.
          ---              ---------- --------- --------- ---------
          N                   0.65       49           9.0       434
          O                   0.60       49          10.0       434
          Grid pruning is: on 
          Number of quadrature shells:   196
          Spatial weights used:  Erf1

          Convergence Information
          -----------------------
          Convergence aids based upon iterative change in 
          total energy or number of iterations. 
          Levelshifting, if invoked, occurs when the 
          HOMO/LUMO gap drops below (HL_TOL):  1.00D-02
          DIIS, if invoked, will attempt to extrapolate 
          using up to (NFOCK): 10 stored Fock matrices.

                    Damping(40%)  Levelshifting(0.0)       DIIS
                  --------------- ------------------- ---------------
          dE  on:    start            0.00D+00            start   
          dE off:  200 iters          0.00D+00          200 iters 


      Screening Tolerance Information
      -------------------------------
          Density screening/tol_rho:  1.00D-10
          AO Gaussian exp screening on grid/accAOfunc:  14
          CD Gaussian exp screening on grid/accCDfunc:  20
          XC Gaussian exp screening on grid/accXCfunc:  20
          Schwarz screening/accCoul:  1.00D-08


 Forcing the number of linearly dependent vectors to be  0

      Superposition of Atomic Density Guess
      -------------------------------------

 Sum of atomic energies:        -278.65395960
   Time after variat. SCF:      0.2
   Time prior to 1st pass:      0.2

 Grid_pts file          = /jet/home/hmt47/nwchem_scratch//dft.gridpts.00
 Record size in doubles =  12289        No. of grid_pts per rec  =   3070
 Max. records in memory =      4        Max. recs in file   =  67550051


           Memory utilization after 1st SCF pass: 
           Heap Space remaining (MW):       33.50            33500968
          Stack Space remaining (MW):       67.11            67106988

   convergence    iter        energy       DeltaE   RMS-Dens  Diis-err    time
 ---------------- ----- ----------------- --------- --------- ---------  ------
 d=40,ls=0.0,diis     1   -280.8085499586 -3.97D+02  5.33D-03  8.79D+00     0.6
                                                     5.32D-03  7.75D+00
 d=40,ls=0.0,diis     2   -280.3508819205  4.58D-01  5.65D-03  1.57D+00     1.8
                                                     5.87D-03  1.39D+00
 d=40,ls=0.0,diis     3   -279.9702479035  3.81D-01  1.16D-03  6.47D-01     3.0
                                                     1.16D-03  5.97D-01
 d=40,ls=0.0,diis     4   -280.0683795830 -9.81D-02  6.31D-04  1.43D-01     4.1
                                                     6.15D-04  1.32D-01
 d=40,ls=0.0,diis     5   -280.0916529931 -2.33D-02  3.11D-04  3.31D-02     5.3
                                                     3.14D-04  3.08D-02
  Resetting Diis
 d=40,ls=0.0,diis     6   -280.0980358034 -6.38D-03  1.43D-04  6.86D-03     6.8
                                                     1.73D-04  6.38D-03
 d=40,ls=0.0,diis     7   -280.0993995950 -1.36D-03  2.77D-04  1.77D-03     8.0
                                                     3.82D-04  1.68D-03
 d=40,ls=0.0,diis     8   -280.0964761513  2.92D-03  1.43D-04  7.25D-03     9.1
                                                     2.81D-04  7.77D-03
 d=40,ls=0.0,diis     9   -280.0991461851 -2.67D-03  7.01D-05  1.34D-03    10.3
                                                     7.45D-05  1.34D-03
 d=40,ls=0.0,diis    10   -280.0998219996 -6.76D-04  2.69D-05  1.90D-04    11.5
                                                     3.04D-05  1.93D-04
 d=40,ls=0.0,diis    11   -280.1000176437 -1.96D-04  1.18D-05  3.65D-05    12.7
                                                     1.53D-05  3.81D-05
 d=40,ls=0.0,diis    12   -280.1000894689 -7.18D-05  4.82D-06  7.34D-06    13.8
                                                     5.68D-06  7.86D-06
 d=40,ls=0.0,diis    13   -280.1001172702 -2.78D-05  1.65D-06  1.17D-06    15.0
                                                     2.22D-06  1.31D-06
 d=40,ls=0.0,diis    14   -280.1001280025 -1.07D-05  7.04D-07  1.89D-07    16.2
                                                     1.03D-06  2.17D-07
 d=40,ls=0.0,diis    15   -280.1001322327 -4.23D-06  2.59D-07  2.94D-08    17.4
                                                     4.23D-07  3.46D-08
 d=40,ls=0.0,diis    16   -280.1001339142 -1.68D-06  1.01D-07  4.74D-09    18.5
                                                     1.73D-07  5.60D-09
 d=40,ls=0.0,diis    17   -280.1001345852 -6.71D-07  4.07D-08  7.64D-10    19.7
                                                     7.03D-08  9.05D-10


         Total DFT energy =     -280.100134585160
      One electron energy =     -613.622070476003
           Coulomb energy =      249.436137785101
    Exchange-Corr. energy =      -32.131035695254
 Nuclear repulsion energy =      116.216833800996

 Numeric. integr. density =       30.999998607044

     Total iterative time =     19.5s



                    DFT Final Alpha Molecular Orbital Analysis
                    ------------------------------------------

 Vector    1  Occ=1.000000D+00  E=-1.888098D+01
              MO Center=  9.6D-02,  1.6D-01, -7.5D-02, r^2= 1.6D+00
   Bfn.  Coefficient  Atom+Function         Bfn.  Coefficient  Atom+Function  
  ----- ------------  ---------------      ----- ------------  ---------------
   111      0.650616  3 O  s                 56      0.535715  2 O  s          
   166      0.508406  4 O  s                  4      0.139172  1 N  s          
   114     -0.056699  3 O  s                 59     -0.055361  2 O  s          
   169     -0.055050  4 O  s                113      0.043768  3 O  s          
    50      0.037280  1 N  fxyz              58      0.036236  2 O  s          

 Vector    2  Occ=1.000000D+00  E=-1.888092D+01
              MO Center=  2.3D-01,  4.0D-01, -4.0D-02, r^2= 1.4D+00
   Bfn.  Coefficient  Atom+Function         Bfn.  Coefficient  Atom+Function  
  ----- ------------  ---------------      ----- ------------  ---------------
   111      0.727295  3 O  s                 56     -0.547225  2 O  s          
   166     -0.356819  4 O  s                113      0.047570  3 O  s          
   115     -0.037429  3 O  s                 58     -0.035995  2 O  s          
    13     -0.026532  1 N  py                60      0.025983  2 O  s          

 Vector    3  Occ=1.000000D+00  E=-1.888091D+01
              MO Center= -3.3D-01, -5.7D-01,  9.9D-02, r^2= 1.2D+00
   Bfn.  Coefficient  Atom+Function         Bfn.  Coefficient  Atom+Function  
  ----- ------------  ---------------      ----- ------------  ---------------
   166      0.757787  4 O  s                 56     -0.611220  2 O  s          
   111     -0.088175  3 O  s                168      0.049723  4 O  s          
    58     -0.040036  2 O  s                170     -0.037292  4 O  s          
    14      0.031297  1 N  pz                60      0.030822  2 O  s          

 Vector    4  Occ=1.000000D+00  E=-1.430983D+01
              MO Center= -4.4D-04, -1.9D-03, -5.4D-03, r^2= 2.0D-02
   Bfn.  Coefficient  Atom+Function         Bfn.  Coefficient  Atom+Function  
  ----- ------------  ---------------      ----- ------------  ---------------
     1      0.997818  1 N  s                  4     -0.172647  1 N  s          
     3      0.060077  1 N  s                  2      0.053028  1 N  s          
    69     -0.041713  2 O  pz               178      0.031571  4 O  py         
   123     -0.031138  3 O  py                59      0.028476  2 O  s          
   114      0.028449  3 O  s                169      0.028489  4 O  s          

 Vector    5  Occ=1.000000D+00  E=-1.225308D+00
              MO Center= -4.0D-04, -1.9D-03, -5.5D-03, r^2= 9.4D-01
   Bfn.  Coefficient  Atom+Function         Bfn.  Coefficient  Atom+Function  
  ----- ------------  ---------------      ----- ------------  ---------------
     2      0.352385  1 N  s                  4      0.202014  1 N  s          
    57      0.193222  2 O  s                112      0.193270  3 O  s          
   167      0.193261  4 O  s                 59      0.098455  2 O  s          
   114      0.098484  3 O  s                169      0.098476  4 O  s          
     3      0.090353  1 N  s                 63     -0.062880  2 O  pz         

 Vector    6  Occ=1.000000D+00  E=-1.030124D+00
              MO Center= -2.0D-01, -3.5D-01, -7.0D-02, r^2= 1.2D+00
   Bfn.  Coefficient  Atom+Function         Bfn.  Coefficient  Atom+Function  
  ----- ------------  ---------------      ----- ------------  ---------------
   167      0.371002  4 O  s                169      0.274641  4 O  s          
    57     -0.246166  2 O  s                 59     -0.182225  2 O  s          
   112     -0.124881  3 O  s                  7     -0.118416  1 N  py         
     8     -0.117395  1 N  pz               168      0.100690  4 O  s          
   114     -0.092450  3 O  s                 10     -0.084144  1 N  py         

 Vector    7  Occ=1.000000D+00  E=-1.030091D+00
              MO Center=  2.0D-01,  3.5D-01,  5.9D-02, r^2= 1.2D+00
   Bfn.  Coefficient  Atom+Function         Bfn.  Coefficient  Atom+Function  
  ----- ------------  ---------------      ----- ------------  ---------------
   112      0.356330  3 O  s                 57     -0.286320  2 O  s          
   114      0.263769  3 O  s                 59     -0.211937  2 O  s          
     8     -0.134080  1 N  pz                 7      0.099536  1 N  py         
   113      0.096707  3 O  s                 11     -0.095276  1 N  pz         
    58     -0.077706  2 O  s                 10      0.070729  1 N  py         

 Vector    8  Occ=1.000000D+00  E=-6.304543D-01
              MO Center= -3.6D-04, -1.8D-03, -5.5D-03, r^2= 2.4D+00
   Bfn.  Coefficient  Atom+Function         Bfn.  Coefficient  Atom+Function  
  ----- ------------  ---------------      ----- ------------  ---------------
     4      0.625851  1 N  s                 59     -0.328354  2 O  s          
   114     -0.328348  3 O  s                169     -0.328390  4 O  s          
     2      0.303926  1 N  s                 57     -0.237705  2 O  s          
   112     -0.237705  3 O  s                167     -0.237706  4 O  s          
    66     -0.124147  2 O  pz                63     -0.116658  2 O  pz         

 Vector    9  Occ=1.000000D+00  E=-5.562525D-01
              MO Center= -4.2D-04, -1.9D-03, -5.5D-03, r^2= 1.2D+00
   Bfn.  Coefficient  Atom+Function         Bfn.  Coefficient  Atom+Function  
  ----- ------------  ---------------      ----- ------------  ---------------
     6      0.252726  1 N  px                 9      0.241454  1 N  px         
     7     -0.145040  1 N  py                10     -0.138572  1 N  py         
    61      0.117374  2 O  px               116      0.117388  3 O  px         
   171      0.117394  4 O  px                64      0.116153  2 O  px         
   119      0.116166  3 O  px               174      0.116171  4 O  px         

 Vector   10  Occ=1.000000D+00  E=-5.465414D-01
              MO Center=  2.0D-01,  3.6D-01,  2.1D-01, r^2= 2.0D+00
   Bfn.  Coefficient  Atom+Function         Bfn.  Coefficient  Atom+Function  
  ----- ------------  ---------------      ----- ------------  ---------------
   112      0.197297  3 O  s                 57     -0.191698  2 O  s          
     8      0.186349  1 N  pz                63     -0.178577  2 O  pz         
   114      0.171409  3 O  s                 59     -0.166563  2 O  s          
    66     -0.165487  2 O  pz                11      0.159623  1 N  pz         
   117      0.159628  3 O  py               120      0.149630  3 O  py         

 Vector   11  Occ=1.000000D+00  E=-5.465377D-01
              MO Center= -2.0D-01, -3.7D-01, -2.2D-01, r^2= 2.0D+00
   Bfn.  Coefficient  Atom+Function         Bfn.  Coefficient  Atom+Function  
  ----- ------------  ---------------      ----- ------------  ---------------
   167      0.224605  4 O  s                169      0.195129  4 O  s          
     7      0.163739  1 N  py               172     -0.158991  4 O  py         
   175     -0.147386  4 O  py                10      0.140258  1 N  py         
   118      0.131239  3 O  pz               121      0.127879  3 O  pz         
    57     -0.117153  2 O  s                  8      0.116181  1 N  pz         

 Vector   12  Occ=1.000000D+00  E=-3.780866D-01
              MO Center=  2.1D-01,  3.6D-01, -1.0D-01, r^2= 2.0D+00
   Bfn.  Coefficient  Atom+Function         Bfn.  Coefficient  Atom+Function  
  ----- ------------  ---------------      ----- ------------  ---------------
   121      0.244186  3 O  pz               118      0.240284  3 O  pz         
   173      0.163711  4 O  pz                65      0.159007  2 O  py         
   176      0.159760  4 O  pz                62      0.157133  2 O  py         
   117      0.143215  3 O  py               120      0.143665  3 O  py         
   124      0.142977  3 O  pz                63      0.119126  2 O  pz         

 Vector   13  Occ=1.000000D+00  E=-3.780504D-01
              MO Center= -2.1D-01, -3.6D-01,  9.1D-02, r^2= 2.0D+00
   Bfn.  Coefficient  Atom+Function         Bfn.  Coefficient  Atom+Function  
  ----- ------------  ---------------      ----- ------------  ---------------
   176     -0.209345  4 O  pz               173     -0.204375  4 O  pz         
    65      0.200245  2 O  py                62      0.197692  2 O  py         
   172      0.157038  4 O  py               175      0.155426  4 O  py         
   179     -0.120220  4 O  pz                64      0.118288  2 O  px         
    68      0.118185  2 O  py                61      0.117095  2 O  px         

 Vector   14  Occ=1.000000D+00  E=-3.464126D-01
              MO Center= -2.6D-01, -4.7D-01, -3.0D-01, r^2= 1.8D+00
   Bfn.  Coefficient  Atom+Function         Bfn.  Coefficient  Atom+Function  
  ----- ------------  ---------------      ----- ------------  ---------------
   174      0.289195  4 O  px               171      0.285920  4 O  px         
   177      0.178572  4 O  px               175     -0.165965  4 O  py         
   172     -0.164085  4 O  py                64     -0.148782  2 O  px         
    61     -0.147096  2 O  px               119     -0.140444  3 O  px         
   116     -0.138852  3 O  px               178     -0.102488  4 O  py         

 Vector   15  Occ=1.000000D+00  E=-3.464071D-01
              MO Center=  2.6D-01,  4.6D-01,  2.8D-01, r^2= 1.8D+00
   Bfn.  Coefficient  Atom+Function         Bfn.  Coefficient  Atom+Function  
  ----- ------------  ---------------      ----- ------------  ---------------
   119     -0.252868  3 O  px               116     -0.250004  3 O  px         
    64      0.248053  2 O  px                61      0.245244  2 O  px         
   122     -0.156154  3 O  px                67      0.153179  2 O  px         
   120      0.145125  3 O  py               117      0.143481  3 O  py         
    65     -0.142356  2 O  py                62     -0.140744  2 O  py         

 Vector   16  Occ=1.000000D+00  E=-3.193471D-01
              MO Center= -4.2D-04, -1.9D-03, -5.4D-03, r^2= 2.1D+00
   Bfn.  Coefficient  Atom+Function         Bfn.  Coefficient  Atom+Function  
  ----- ------------  ---------------      ----- ------------  ---------------
    65      0.224853  2 O  py               121     -0.225498  3 O  pz         
   176      0.223175  4 O  pz                62      0.216553  2 O  py         
   118     -0.217170  3 O  pz               173      0.214933  4 O  pz         
    68      0.148205  2 O  py               124     -0.148637  3 O  pz         
   179      0.147083  4 O  pz                64      0.128951  2 O  px         

 Vector   17  Occ=0.000000D+00  E=-1.521141D-01
              MO Center= -4.5D-04, -2.0D-03, -5.5D-03, r^2= 1.7D+00
   Bfn.  Coefficient  Atom+Function         Bfn.  Coefficient  Atom+Function  
  ----- ------------  ---------------      ----- ------------  ---------------
     9      0.312034  1 N  px                 6      0.288807  1 N  px         
    12      0.244129  1 N  px                10     -0.179077  1 N  py         
    64     -0.174806  2 O  px               119     -0.174796  3 O  px         
   174     -0.174825  4 O  px                61     -0.168656  2 O  px         
   116     -0.168645  3 O  px               171     -0.168674  4 O  px         

 Vector   18  Occ=0.000000D+00  E=-1.638613D-02
              MO Center= -4.3D-04, -1.9D-03, -5.4D-03, r^2= 7.5D+00
   Bfn.  Coefficient  Atom+Function         Bfn.  Coefficient  Atom+Function  
  ----- ------------  ---------------      ----- ------------  ---------------
     5      6.406016  1 N  s                  4      2.519687  1 N  s          
    60     -2.135233  2 O  s                115     -2.134966  3 O  s          
   170     -2.135365  4 O  s                 59     -0.762744  2 O  s          
   114     -0.762663  3 O  s                169     -0.762870  4 O  s          
    72      0.657856  2 O  pz                69      0.551424  2 O  pz         

 Vector   19  Occ=0.000000D+00  E= 4.043412D-02
              MO Center=  1.9D-01,  3.3D-01, -1.6D-02, r^2= 1.3D+01
   Bfn.  Coefficient  Atom+Function         Bfn.  Coefficient  Atom+Function  
  ----- ------------  ---------------      ----- ------------  ---------------
   115      4.073718  3 O  s                 60     -2.913055  2 O  s          
    17      2.120892  1 N  pz                16     -1.906786  1 N  py         
    15     -1.179837  1 N  px               170     -1.160256  4 O  s          
   126     -0.765967  3 O  py                72      0.697777  2 O  pz         
    14      0.587389  1 N  pz                13     -0.528093  1 N  py         

 Vector   20  Occ=0.000000D+00  E= 4.043512D-02
              MO Center= -1.9D-01, -3.4D-01,  5.1D-03, r^2= 1.3D+01
   Bfn.  Coefficient  Atom+Function         Bfn.  Coefficient  Atom+Function  
  ----- ------------  ---------------      ----- ------------  ---------------
   170      4.034162  4 O  s                 60     -3.021751  2 O  s          
    17      2.239867  1 N  pz                16      1.879628  1 N  py         
   115     -1.011836  3 O  s                 15      0.988383  1 N  px         
   181      0.772155  4 O  py                72      0.719004  2 O  pz         
    14      0.620362  1 N  pz                13      0.520596  1 N  py         

 Vector   21  Occ=0.000000D+00  E= 5.278335D-02
              MO Center= -4.1D-04, -2.0D-03, -5.4D-03, r^2= 8.7D+00
   Bfn.  Coefficient  Atom+Function         Bfn.  Coefficient  Atom+Function  
  ----- ------------  ---------------      ----- ------------  ---------------
    15      1.391222  1 N  px                16     -0.798427  1 N  py         
    12     -0.511807  1 N  px                13      0.293733  1 N  py         
    46      0.156328  1 N  fxxx              49      0.156029  1 N  fxyy       
    70     -0.134439  2 O  px               125     -0.134405  3 O  px         
   180     -0.134474  4 O  px                51      0.131423  1 N  fxzz       

 Vector   22  Occ=0.000000D+00  E= 6.121305D-02
              MO Center= -4.3D-04, -1.8D-03, -5.0D-03, r^2= 4.1D+00
   Bfn.  Coefficient  Atom+Function         Bfn.  Coefficient  Atom+Function  
  ----- ------------  ---------------      ----- ------------  ---------------
     5      6.327445  1 N  s                  4      2.346452  1 N  s          
    60     -2.263027  2 O  s                115     -2.262393  3 O  s          
   170     -2.262473  4 O  s                 59     -0.662281  2 O  s          
   114     -0.662215  3 O  s                169     -0.662163  4 O  s          
    31      0.573843  1 N  dxy               72      0.477753  2 O  pz         

 Vector   23  Occ=0.000000D+00  E= 9.338362D-02
              MO Center= -8.6D-02, -1.5D-01, -3.3D-02, r^2= 1.0D+01
   Bfn.  Coefficient  Atom+Function         Bfn.  Coefficient  Atom+Function  
  ----- ------------  ---------------      ----- ------------  ---------------
    34      1.758867  1 N  dyz               35      1.186321  1 N  dzz        
   114      1.081724  3 O  s                 31     -1.061491  1 N  dxy        
   182      0.926490  4 O  pz                32      0.913720  1 N  dxz        
    33     -0.862927  1 N  dyy               59     -0.866269  2 O  s          
   179      0.819553  4 O  pz               126      0.654636  3 O  py         

 Vector   24  Occ=0.000000D+00  E= 9.339431D-02
              MO Center=  8.6D-02,  1.5D-01,  2.1D-02, r^2= 1.0D+01
   Bfn.  Coefficient  Atom+Function         Bfn.  Coefficient  Atom+Function  
  ----- ------------  ---------------      ----- ------------  ---------------
    34      2.024598  1 N  dyz               32      1.241752  1 N  dxz        
   169     -1.125367  4 O  s                 35     -0.989744  1 N  dzz        
   127     -0.949858  3 O  pz                31      0.815036  1 N  dxy        
    33      0.781133  1 N  dyy              124     -0.774448  3 O  pz         
    59      0.749446  2 O  s                 68     -0.661851  2 O  py         

 Vector   25  Occ=0.000000D+00  E= 1.003743D-01
              MO Center= -3.9D-04, -1.9D-03, -5.4D-03, r^2= 1.1D+01
   Bfn.  Coefficient  Atom+Function         Bfn.  Coefficient  Atom+Function  
  ----- ------------  ---------------      ----- ------------  ---------------
     4     11.372697  1 N  s                 59     -2.719742  2 O  s          
   114     -2.719812  3 O  s                169     -2.720480  4 O  s          
    69      2.401416  2 O  pz                35      2.301565  1 N  dzz        
    33      1.824439  1 N  dyy              178     -1.817027  4 O  py         
   123      1.793541  3 O  py                31      1.671127  1 N  dxy        

 Vector   26  Occ=0.000000D+00  E= 1.165013D-01
              MO Center= -3.2D-01, -5.4D-01,  2.0D-01, r^2= 1.0D+01
   Bfn.  Coefficient  Atom+Function         Bfn.  Coefficient  Atom+Function  
  ----- ------------  ---------------      ----- ------------  ---------------
   180      1.245100  4 O  px                70     -1.110028  2 O  px         
   181     -0.714576  4 O  py                71      0.637025  2 O  py         
    32      0.479497  1 N  dxz               34     -0.259616  1 N  dyz        
    31      0.210609  1 N  dxy               87      0.206004  2 O  dxz        
    33     -0.170800  1 N  dyy               30      0.151747  1 N  dxx        

 Vector   27  Occ=0.000000D+00  E= 1.165026D-01
              MO Center=  3.1D-01,  5.3D-01, -2.1D-01, r^2= 1.0D+01
   Bfn.  Coefficient  Atom+Function         Bfn.  Coefficient  Atom+Function  
  ----- ------------  ---------------      ----- ------------  ---------------
   125      1.359953  3 O  px                70     -0.796814  2 O  px         
   126     -0.780461  3 O  py               180     -0.562693  4 O  px         
    71      0.457328  2 O  py                32      0.323348  1 N  dxz        
   181      0.322961  4 O  py                31     -0.263737  1 N  dxy        
    30     -0.245754  1 N  dxx               33      0.232338  1 N  dyy        

 Vector   28  Occ=0.000000D+00  E= 1.723327D-01
              MO Center= -6.3D-04, -2.3D-03, -5.2D-03, r^2= 1.3D+01
   Bfn.  Coefficient  Atom+Function         Bfn.  Coefficient  Atom+Function  
  ----- ------------  ---------------      ----- ------------  ---------------
    71      1.892816  2 O  py               127     -1.897310  3 O  pz         
   182      1.878979  4 O  pz                70      1.085481  2 O  px         
   126     -0.964160  3 O  py               181     -0.927960  4 O  py         
   180     -0.608342  4 O  px               125     -0.476825  3 O  px         
    54     -0.431909  1 N  fyzz              51     -0.247317  1 N  fxzz       

 Vector   29  Occ=0.000000D+00  E= 1.853668D-01
              MO Center= -4.7D-03, -9.0D-03,  1.8D-03, r^2= 1.2D+01
   Bfn.  Coefficient  Atom+Function         Bfn.  Coefficient  Atom+Function  
  ----- ------------  ---------------      ----- ------------  ---------------
    17      8.594345  1 N  pz                16      3.415727  1 N  py         
   127     -3.401110  3 O  pz                60     -3.115963  2 O  s          
    14     -3.015906  1 N  pz               182     -3.016550  4 O  pz         
    59      2.762257  2 O  s                170      2.768811  4 O  s          
    72     -2.485008  2 O  pz               169     -2.454877  4 O  s          

 Vector   30  Occ=0.000000D+00  E= 1.853727D-01
              MO Center=  4.2D-03,  5.6D-03, -1.3D-02, r^2= 1.2D+01
   Bfn.  Coefficient  Atom+Function         Bfn.  Coefficient  Atom+Function  
  ----- ------------  ---------------      ----- ------------  ---------------
    16      7.393425  1 N  py                15      4.394613  1 N  px         
    17     -3.763306  1 N  pz               115     -3.407442  3 O  s          
   114      3.012197  3 O  s                 71     -2.975853  2 O  py         
    13     -2.593265  1 N  py               181     -2.502626  4 O  py         
    34      2.369219  1 N  dyz              126     -2.180088  3 O  py         

 Vector   31  Occ=0.000000D+00  E= 1.906513D-01
              MO Center= -3.0D-03, -2.7D-03, -4.8D-03, r^2= 1.0D+01
   Bfn.  Coefficient  Atom+Function         Bfn.  Coefficient  Atom+Function  
  ----- ------------  ---------------      ----- ------------  ---------------
     5     20.283188  1 N  s                 60     -9.384109  2 O  s          
   115     -9.373134  3 O  s                170     -9.386576  4 O  s          
     4     -4.298759  1 N  s                 72      1.785152  2 O  pz         
    59      1.551737  2 O  s                114      1.548152  3 O  s          
   169      1.552548  4 O  s                181     -1.351340  4 O  py         

 Vector   32  Occ=0.000000D+00  E= 1.918090D-01
              MO Center=  1.1D-03, -3.0D-03, -5.3D-03, r^2= 1.3D+01
   Bfn.  Coefficient  Atom+Function         Bfn.  Coefficient  Atom+Function  
  ----- ------------  ---------------      ----- ------------  ---------------
    15      6.442429  1 N  px                16     -3.696920  1 N  py         
    70     -2.697146  2 O  px               125     -2.695988  3 O  px         
   180     -2.697980  4 O  px                71      1.547710  2 O  py         
   126      1.548671  3 O  py               181      1.546671  4 O  py         
    67      0.301649  2 O  px               122      0.301181  3 O  px         

 Vector   33  Occ=0.000000D+00  E= 1.980163D-01
              MO Center=  2.1D-01,  3.7D-01, -2.5D-02, r^2= 5.3D+00
   Bfn.  Coefficient  Atom+Function         Bfn.  Coefficient  Atom+Function  
  ----- ------------  ---------------      ----- ------------  ---------------
   115      3.591376  3 O  s                 60     -2.519405  2 O  s          
   126     -1.333286  3 O  py                72      1.269778  2 O  pz         
   170     -1.028996  4 O  s                127      0.907079  3 O  pz         
    34     -0.809833  1 N  dyz              125     -0.801751  3 O  px         
    14      0.651116  1 N  pz                13     -0.593807  1 N  py         

 Vector   34  Occ=0.000000D+00  E= 1.980909D-01
              MO Center= -2.1D-01, -3.7D-01,  1.3D-02, r^2= 5.3D+00
   Bfn.  Coefficient  Atom+Function         Bfn.  Coefficient  Atom+Function  
  ----- ------------  ---------------      ----- ------------  ---------------
   170      3.529934  4 O  s                 60     -2.679837  2 O  s          
    72      1.339988  2 O  pz               181      1.325856  4 O  py         
   182      0.922381  4 O  pz               115     -0.870915  3 O  s          
    34      0.767858  1 N  dyz              180      0.723709  4 O  px         
    14      0.695578  1 N  pz                13      0.575309  1 N  py         

 Vector   35  Occ=0.000000D+00  E= 2.535833D-01
              MO Center=  1.0D-01,  1.8D-01,  4.6D-02, r^2= 1.1D+01
   Bfn.  Coefficient  Atom+Function         Bfn.  Coefficient  Atom+Function  
  ----- ------------  ---------------      ----- ------------  ---------------
   115     10.863473  3 O  s                 60     -9.129378  2 O  s          
    17      5.498116  1 N  pz                16     -3.777277  1 N  py         
    15     -2.389527  1 N  px               170     -1.737485  4 O  s          
   182     -1.252235  4 O  pz                14      0.970967  1 N  pz         
   126     -0.939786  3 O  py                72      0.814383  2 O  pz         

 Vector   36  Occ=0.000000D+00  E= 2.535952D-01
              MO Center= -1.0D-01, -1.9D-01, -5.6D-02, r^2= 1.1D+01
   Bfn.  Coefficient  Atom+Function         Bfn.  Coefficient  Atom+Function  
  ----- ------------  ---------------      ----- ------------  ---------------
   170     11.541987  4 O  s                 60     -7.272991  2 O  s          
    16      4.848811  1 N  py                17      4.462683  1 N  pz         
   115     -4.266504  3 O  s                 15      2.602794  1 N  px         
   127     -1.301646  3 O  pz                71     -0.928962  2 O  py         
    13      0.856234  1 N  py               181      0.858235  4 O  py         

 Vector   37  Occ=0.000000D+00  E= 3.220189D-01
              MO Center= -3.6D-04, -1.8D-03, -5.5D-03, r^2= 6.8D+00
   Bfn.  Coefficient  Atom+Function         Bfn.  Coefficient  Atom+Function  
  ----- ------------  ---------------      ----- ------------  ---------------
     4      6.271922  1 N  s                  5      4.569507  1 N  s          
    30     -2.932319  1 N  dxx               33     -2.311861  1 N  dyy        
    35     -2.009412  1 N  dzz               59     -1.599483  2 O  s          
   114     -1.602633  3 O  s                169     -1.598902  4 O  s          
    31      1.062136  1 N  dxy               69      0.804603  2 O  pz         

 Vector   38  Occ=0.000000D+00  E= 3.577864D-01
              MO Center= -1.9D-01, -3.3D-01,  4.5D-02, r^2= 4.3D+00
   Bfn.  Coefficient  Atom+Function         Bfn.  Coefficient  Atom+Function  
  ----- ------------  ---------------      ----- ------------  ---------------
    32      2.035191  1 N  dxz              122      1.464684  3 O  px         
    31     -1.352808  1 N  dxy               30     -1.283127  1 N  dxx        
    34     -1.281709  1 N  dyz               33      1.198876  1 N  dyy        
    67     -0.977582  2 O  px               123     -0.840723  3 O  py         
   125      0.627673  3 O  px                68      0.561012  2 O  py         

 Vector   39  Occ=0.000000D+00  E= 3.578009D-01
              MO Center=  1.9D-01,  3.2D-01, -5.6D-02, r^2= 4.3D+00
   Bfn.  Coefficient  Atom+Function         Bfn.  Coefficient  Atom+Function  
  ----- ------------  ---------------      ----- ------------  ---------------
    32      2.488159  1 N  dxz              177      1.410592  4 O  px         
    34     -1.331355  1 N  dyz               31      1.299885  1 N  dxy        
    67     -1.126966  2 O  px                33     -1.064174  1 N  dyy        
    30      0.965197  1 N  dxx              178     -0.809134  4 O  py         
    68      0.646876  2 O  py                87      0.639709  2 O  dxz        

 Vector   40  Occ=0.000000D+00  E= 3.899081D-01
              MO Center= -4.3D-04, -1.8D-03, -5.5D-03, r^2= 5.3D+00
   Bfn.  Coefficient  Atom+Function         Bfn.  Coefficient  Atom+Function  
  ----- ------------  ---------------      ----- ------------  ---------------
    12      3.901888  1 N  px                13     -2.239309  1 N  py         
    46     -1.120918  1 N  fxxx              49     -1.120230  1 N  fxyy       
    51     -1.063616  1 N  fxzz              15     -0.790315  1 N  px         
    47      0.709485  1 N  fxxy              52      0.621122  1 N  fyyy       
    54      0.610414  1 N  fyzz               9     -0.589383  1 N  px         

 Vector   41  Occ=0.000000D+00  E= 3.936661D-01
              MO Center= -7.8D-04, -2.7D-03, -5.1D-03, r^2= 8.9D+00
   Bfn.  Coefficient  Atom+Function         Bfn.  Coefficient  Atom+Function  
  ----- ------------  ---------------      ----- ------------  ---------------
     4     44.025740  1 N  s                 59    -11.339738  2 O  s          
   114    -11.345938  3 O  s                169    -11.341316  4 O  s          
    69      9.273931  2 O  pz                 5      9.067432  1 N  s          
    35      7.476050  1 N  dzz              178     -7.015958  4 O  py         
   123      6.928554  3 O  py                31      6.434434  1 N  dxy        

 Vector   42  Occ=0.000000D+00  E= 4.279477D-01
              MO Center= -9.6D-02, -1.6D-01,  4.6D-02, r^2= 7.3D+00
   Bfn.  Coefficient  Atom+Function         Bfn.  Coefficient  Atom+Function  
  ----- ------------  ---------------      ----- ------------  ---------------
    34     11.382888  1 N  dyz              114      8.640240  3 O  s          
    32      6.123864  1 N  dxz               59     -5.261304  2 O  s          
    35      5.065958  1 N  dzz               31     -4.602849  1 N  dxy        
   115     -4.477526  3 O  s                 68     -3.658654  2 O  py         
   179      3.652115  4 O  pz                33     -3.610911  1 N  dyy        

 Vector   43  Occ=0.000000D+00  E= 4.279680D-01
              MO Center=  9.5D-02,  1.6D-01, -5.7D-02, r^2= 7.3D+00
   Bfn.  Coefficient  Atom+Function         Bfn.  Coefficient  Atom+Function  
  ----- ------------  ---------------      ----- ------------  ---------------
    34      8.559143  1 N  dyz              169     -8.028690  4 O  s          
    59      6.951054  2 O  s                 35     -6.455655  1 N  dzz        
    31      5.412236  1 N  dxy               32      5.432944  1 N  dxz        
    33      5.015743  1 N  dyy              124     -4.416016  3 O  pz         
   170      4.152466  4 O  s                 14     -3.764005  1 N  pz         

 Vector   44  Occ=0.000000D+00  E= 5.136835D-01
              MO Center=  1.4D-01,  2.4D-01, -1.5D-01, r^2= 6.6D+00
   Bfn.  Coefficient  Atom+Function         Bfn.  Coefficient  Atom+Function  
  ----- ------------  ---------------      ----- ------------  ---------------
   114    -15.943245  3 O  s                 13     15.559522  1 N  py         
    14    -10.810328  1 N  pz                12      9.365634  1 N  px         
    59      8.285067  2 O  s                123      8.048875  3 O  py         
   169      7.659913  4 O  s                 34     -6.949609  1 N  dyz        
    69     -5.599680  2 O  pz               124     -5.311631  3 O  pz         

 Vector   45  Occ=0.000000D+00  E= 5.136942D-01
              MO Center= -1.4D-01, -2.4D-01,  1.4D-01, r^2= 6.6D+00
   Bfn.  Coefficient  Atom+Function         Bfn.  Coefficient  Atom+Function  
  ----- ------------  ---------------      ----- ------------  ---------------
    14     18.145497  1 N  pz               169     13.988712  4 O  s          
    59    -13.624498  2 O  s                 13      9.698973  1 N  py         
    69      9.213311  2 O  pz               178      7.097213  4 O  py         
   179      4.919709  4 O  pz                12      4.834492  1 N  px         
    90     -4.745106  2 O  dzz               34     -4.203957  1 N  dyz        

 Vector   46  Occ=0.000000D+00  E= 5.403272D-01
              MO Center= -4.2D-01, -7.3D-01,  2.8D-03, r^2= 6.4D+00
   Bfn.  Coefficient  Atom+Function         Bfn.  Coefficient  Atom+Function  
  ----- ------------  ---------------      ----- ------------  ---------------
    32      1.736429  1 N  dxz               87      1.124310  2 O  dxz        
   180      1.030210  4 O  px                31      1.016259  1 N  dxy        
    34     -0.920353  1 N  dyz              196      0.843117  4 O  dxy        
    33     -0.836103  1 N  dyy               30      0.767171  1 N  dxx        
    70     -0.762983  2 O  px               142     -0.726875  3 O  dxz        

 Vector   47  Occ=0.000000D+00  E= 5.403386D-01
              MO Center=  4.2D-01,  7.3D-01, -1.4D-02, r^2= 6.4D+00
   Bfn.  Coefficient  Atom+Function         Bfn.  Coefficient  Atom+Function  
  ----- ------------  ---------------      ----- ------------  ---------------
    32      1.607411  1 N  dxz               87      1.128880  2 O  dxz        
   125      1.035315  3 O  px                34     -1.001556  1 N  dyz        
    31     -0.934889  1 N  dxy               30     -0.898831  1 N  dxx        
    33      0.832450  1 N  dyy              141     -0.806062  3 O  dxy        
    70     -0.749009  2 O  px               197     -0.741441  4 O  dxz        

 Vector   48  Occ=0.000000D+00  E= 5.609360D-01
              MO Center=  1.5D-01,  2.6D-01, -5.4D-02, r^2= 5.9D+00
   Bfn.  Coefficient  Atom+Function         Bfn.  Coefficient  Atom+Function  
  ----- ------------  ---------------      ----- ------------  ---------------
    34      2.989715  1 N  dyz               35     -2.017670  1 N  dzz        
    32      1.878510  1 N  dxz              124     -1.790679  3 O  pz         
    89      1.766934  2 O  dyz               31      1.685258  1 N  dxy        
    33      1.573208  1 N  dyy              145     -1.401002  3 O  dzz        
    17      1.350226  1 N  pz               144      1.225193  3 O  dyz        

 Vector   49  Occ=0.000000D+00  E= 5.609594D-01
              MO Center= -1.5D-01, -2.7D-01,  4.4D-02, r^2= 5.9D+00
   Bfn.  Coefficient  Atom+Function         Bfn.  Coefficient  Atom+Function  
  ----- ------------  ---------------      ----- ------------  ---------------
    34      3.566291  1 N  dyz               89      2.123183  2 O  dyz        
    32      1.904428  1 N  dxz               35      1.764484  1 N  dzz        
   179      1.692442  4 O  pz                31     -1.596927  1 N  dxy        
   200      1.418470  4 O  dzz               68     -1.387785  2 O  py         
    33     -1.265736  1 N  dyy               87      1.213897  2 O  dxz        

 Vector   50  Occ=0.000000D+00  E= 5.795330D-01
              MO Center=  3.1D-04, -6.8D-04, -5.6D-03, r^2= 8.1D+00
   Bfn.  Coefficient  Atom+Function         Bfn.  Coefficient  Atom+Function  
  ----- ------------  ---------------      ----- ------------  ---------------
    54      2.285678  1 N  fyzz              89      1.579554  2 O  dyz        
    71     -1.441125  2 O  py               127      1.446362  3 O  pz         
   182     -1.429751  4 O  pz                51      1.308922  1 N  fxzz       
    49     -0.988983  1 N  fxyy              87      0.905184  2 O  dxz        
   109     -0.849747  2 O  fyzz              70     -0.826500  2 O  px         

 Vector   51  Occ=0.000000D+00  E= 5.811029D-01
              MO Center= -3.7D-04, -1.8D-03, -5.4D-03, r^2= 7.2D+00
   Bfn.  Coefficient  Atom+Function         Bfn.  Coefficient  Atom+Function  
  ----- ------------  ---------------      ----- ------------  ---------------
     4     33.084931  1 N  s                  5    -15.417736  1 N  s          
    60      8.498510  2 O  s                115      8.499045  3 O  s          
   170      8.498972  4 O  s                 59     -7.652984  2 O  s          
   114     -7.650295  3 O  s                169     -7.654468  4 O  s          
    69      6.650505  2 O  pz               178     -5.031866  4 O  py         

 Vector   52  Occ=0.000000D+00  E= 6.302531D-01
              MO Center= -5.4D-04, -2.1D-03, -5.3D-03, r^2= 7.5D+00
   Bfn.  Coefficient  Atom+Function         Bfn.  Coefficient  Atom+Function  
  ----- ------------  ---------------      ----- ------------  ---------------
    15      3.464447  1 N  px                16     -1.988254  1 N  py         
    70     -1.682993  2 O  px               125     -1.682725  3 O  px         
   180     -1.683139  4 O  px                87      1.449539  2 O  dxz        
    51      0.979120  1 N  fxzz              71      0.965867  2 O  py         
   126      0.965746  3 O  py               181      0.965920  4 O  py         

 Vector   53  Occ=0.000000D+00  E= 6.506052D-01
              MO Center= -7.8D-04, -2.5D-03, -5.1D-03, r^2= 4.6D+00
   Bfn.  Coefficient  Atom+Function         Bfn.  Coefficient  Atom+Function  
  ----- ------------  ---------------      ----- ------------  ---------------
   142      1.058694  3 O  dxz              197     -1.025415  4 O  dxz        
    86     -0.701995  2 O  dxy              199      0.616953  4 O  dyz        
    85     -0.600052  2 O  dxx               88      0.600520  2 O  dyy        
   144     -0.580004  3 O  dyz              141      0.381484  3 O  dxy        
   195      0.336220  4 O  dxx              196      0.319883  4 O  dxy        

 Vector   54  Occ=0.000000D+00  E= 6.827050D-01
              MO Center=  4.5D-02,  7.5D-02, -4.1D-02, r^2= 4.6D+00
   Bfn.  Coefficient  Atom+Function         Bfn.  Coefficient  Atom+Function  
  ----- ------------  ---------------      ----- ------------  ---------------
    32      2.414422  1 N  dxz              142     -1.531151  3 O  dxz        
    34     -1.313439  1 N  dyz              197     -1.047772  4 O  dxz        
    31      0.995322  1 N  dxy              144      0.836536  3 O  dyz        
    33     -0.804246  1 N  dyy              177      0.797754  4 O  px         
    67     -0.738307  2 O  px                30      0.708170  1 N  dxx        

 Vector   55  Occ=0.000000D+00  E= 6.827482D-01
              MO Center= -4.5D-02, -7.8D-02,  3.0D-02, r^2= 4.6D+00
   Bfn.  Coefficient  Atom+Function         Bfn.  Coefficient  Atom+Function  
  ----- ------------  ---------------      ----- ------------  ---------------
    32      1.516548  1 N  dxz               31     -1.333931  1 N  dxy        
    30     -1.235623  1 N  dxx               33      1.172306  1 N  dyy        
   197     -1.164660  4 O  dxz               34     -0.981123  1 N  dyz        
   122      0.885954  3 O  px                86      0.844967  2 O  dxy        
    85      0.749439  2 O  dxx               88     -0.731841  2 O  dyy        

 Vector   56  Occ=0.000000D+00  E= 6.841621D-01
              MO Center= -3.0D-01, -5.0D-01,  4.1D-01, r^2= 6.9D+00
   Bfn.  Coefficient  Atom+Function         Bfn.  Coefficient  Atom+Function  
  ----- ------------  ---------------      ----- ------------  ---------------
    60      7.475728  2 O  s                170     -7.053002  4 O  s          
    59     -5.544485  2 O  s                169      5.239270  4 O  s          
    90     -3.832115  2 O  dzz               17     -3.703359  1 N  pz         
    69      3.039882  2 O  pz               179      2.562409  4 O  pz         
   199      2.569770  4 O  dyz               35      2.335824  1 N  dzz        

 Vector   57  Occ=0.000000D+00  E= 6.841797D-01
              MO Center=  3.0D-01,  5.0D-01, -4.2D-01, r^2= 6.8D+00
   Bfn.  Coefficient  Atom+Function         Bfn.  Coefficient  Atom+Function  
  ----- ------------  ---------------      ----- ------------  ---------------
   115      8.397043  3 O  s                114     -6.212711  3 O  s          
   170     -4.553467  4 O  s                 34     -4.096846  1 N  dyz        
    60     -3.826098  2 O  s                169      3.388458  4 O  s          
    16     -3.182305  1 N  py               144      2.887475  3 O  dyz        
    59      2.845917  2 O  s                143     -2.770101  3 O  dyy        

 Vector   58  Occ=0.000000D+00  E= 7.016943D-01
              MO Center= -7.7D-04, -2.5D-03, -5.3D-03, r^2= 5.7D+00
   Bfn.  Coefficient  Atom+Function         Bfn.  Coefficient  Atom+Function  
  ----- ------------  ---------------      ----- ------------  ---------------
     4     12.911276  1 N  s                  5     11.026919  1 N  s          
    60     -5.603233  2 O  s                115     -5.590186  3 O  s          
   170     -5.608074  4 O  s                 59     -4.070903  2 O  s          
   114     -4.076829  3 O  s                169     -4.069575  4 O  s          
    31      3.829071  1 N  dxy               69      2.441755  2 O  pz         

 Vector   59  Occ=0.000000D+00  E= 7.434449D-01
              MO Center= -5.7D-02, -9.6D-02,  5.5D-02, r^2= 7.5D+00
   Bfn.  Coefficient  Atom+Function         Bfn.  Coefficient  Atom+Function  
  ----- ------------  ---------------      ----- ------------  ---------------
   170    -10.312323  4 O  s                 60     10.241522  2 O  s          
    17     -5.031362  1 N  pz                14      3.936330  1 N  pz         
    16     -2.591136  1 N  py                88     -2.095212  2 O  dyy        
    13      2.027299  1 N  py               200      2.014895  4 O  dzz        
    85     -1.957262  2 O  dxx              124     -1.959864  3 O  pz         

 Vector   60  Occ=0.000000D+00  E= 7.434520D-01
              MO Center=  5.6D-02,  9.2D-02, -6.6D-02, r^2= 7.5D+00
   Bfn.  Coefficient  Atom+Function         Bfn.  Coefficient  Atom+Function  
  ----- ------------  ---------------      ----- ------------  ---------------
   115     11.864146  3 O  s                 60     -5.993118  2 O  s          
   170     -5.871853  4 O  s                 16     -4.315434  1 N  py         
    13      3.378700  1 N  py                17      2.883967  1 N  pz         
    15     -2.592948  1 N  px                14     -2.258059  1 N  pz         
   145     -2.231827  3 O  dzz              140     -2.049679  3 O  dxx        

 Vector   61  Occ=0.000000D+00  E= 7.985218D-01
              MO Center= -2.3D-04, -1.7D-03, -5.5D-03, r^2= 4.5D+00
   Bfn.  Coefficient  Atom+Function         Bfn.  Coefficient  Atom+Function  
  ----- ------------  ---------------      ----- ------------  ---------------
    12      7.643559  1 N  px                13     -4.385859  1 N  py         
    67     -3.637395  2 O  px               122     -3.639843  3 O  px         
   177     -3.636824  4 O  px                87      2.914828  2 O  dxz        
    68      2.087544  2 O  py               123      2.089708  3 O  py         
   178      2.086926  4 O  py                89     -1.674031  2 O  dyz        

 Vector   62  Occ=0.000000D+00  E= 8.821680D-01
              MO Center=  6.4D-02,  1.1D-01, -3.6D-02, r^2= 5.2D+00
   Bfn.  Coefficient  Atom+Function         Bfn.  Coefficient  Atom+Function  
  ----- ------------  ---------------      ----- ------------  ---------------
    13     26.448086  1 N  py               114    -26.017545  3 O  s          
    14    -23.652673  1 N  pz                12     16.132383  1 N  px         
    59     16.114854  2 O  s                123     10.950860  3 O  py         
    34    -10.377832  1 N  dyz              169      9.864084  4 O  s          
    69     -8.980570  2 O  pz               124     -6.860990  3 O  pz         

 Vector   63  Occ=0.000000D+00  E= 8.821880D-01
              MO Center= -6.5D-02, -1.1D-01,  2.6D-02, r^2= 5.2D+00
   Bfn.  Coefficient  Atom+Function         Bfn.  Coefficient  Atom+Function  
  ----- ------------  ---------------      ----- ------------  ---------------
    14     30.954649  1 N  pz               169     24.319870  4 O  s          
    13     21.069969  1 N  py                59    -20.719187  2 O  s          
    69     11.521658  2 O  pz                12     10.843661  1 N  px         
   178     10.597511  4 O  py                34     -8.034496  1 N  dyz        
   179      6.148269  4 O  pz                35      5.882970  1 N  dzz        

 Vector   64  Occ=0.000000D+00  E= 9.083498D-01
              MO Center= -1.6D-04, -1.4D-03, -5.7D-03, r^2= 5.9D+00
   Bfn.  Coefficient  Atom+Function         Bfn.  Coefficient  Atom+Function  
  ----- ------------  ---------------      ----- ------------  ---------------
     4     28.799217  1 N  s                 35     14.779312  1 N  dzz        
    33     11.876321  1 N  dyy               59    -10.854674  2 O  s          
   169    -10.867180  4 O  s                114    -10.807053  3 O  s          
    31     10.121105  1 N  dxy               69      7.920490  2 O  pz         
   178     -5.998773  4 O  py                30      5.959782  1 N  dxx        

 Vector   65  Occ=0.000000D+00  E= 9.215716D-01
              MO Center= -1.0D-01, -1.9D-01, -7.1D-02, r^2= 4.1D+00
   Bfn.  Coefficient  Atom+Function         Bfn.  Coefficient  Atom+Function  
  ----- ------------  ---------------      ----- ------------  ---------------
    32      7.000639  1 N  dxz              122      5.550542  3 O  px         
    67     -4.854094  2 O  px                34     -4.269339  1 N  dyz        
   123     -3.185814  3 O  py                30     -2.901740  1 N  dxx        
    31     -2.890791  1 N  dxy               68      2.786500  2 O  py         
    87      2.738382  2 O  dxz               33      2.613790  1 N  dyy        

 Vector   66  Occ=0.000000D+00  E= 9.215843D-01
              MO Center=  1.0D-01,  1.8D-01,  6.0D-02, r^2= 4.1D+00
   Bfn.  Coefficient  Atom+Function         Bfn.  Coefficient  Atom+Function  
  ----- ------------  ---------------      ----- ------------  ---------------
   177      6.009390  4 O  px                32      5.529203  1 N  dxz        
    31      4.332011  1 N  dxy               33     -3.598081  1 N  dyy        
    67     -3.608310  2 O  px               178     -3.448960  4 O  py         
    30      3.382636  1 N  dxx               34     -2.843740  1 N  dyz        
   122     -2.397642  3 O  px                68      2.071728  2 O  py         

 Vector   67  Occ=0.000000D+00  E= 9.469173D-01
              MO Center=  5.9D-02,  1.0D-01, -3.7D-02, r^2= 5.4D+00
   Bfn.  Coefficient  Atom+Function         Bfn.  Coefficient  Atom+Function  
  ----- ------------  ---------------      ----- ------------  ---------------
    34     13.585032  1 N  dyz              124    -11.285827  3 O  pz         
    35    -10.185105  1 N  dzz               32      8.618673  1 N  dxz        
    31      8.531262  1 N  dxy               33      7.909913  1 N  dyy        
    68     -6.689209  2 O  py               169     -5.817223  4 O  s          
   123     -5.251603  3 O  py                59      5.022038  2 O  s          

 Vector   68  Occ=0.000000D+00  E= 9.469713D-01
              MO Center= -6.0D-02, -1.0D-01,  2.7D-02, r^2= 5.4D+00
   Bfn.  Coefficient  Atom+Function         Bfn.  Coefficient  Atom+Function  
  ----- ------------  ---------------      ----- ------------  ---------------
    34     17.950517  1 N  dyz              179     10.927326  4 O  pz         
    32      9.655085  1 N  dxz               68     -8.864262  2 O  py         
    35      8.023111  1 N  dzz               31     -7.311665  1 N  dxy        
   114      6.249102  3 O  s                 33     -5.741013  1 N  dyy        
    67     -4.989280  2 O  px               115     -4.399496  3 O  s          

 Vector   69  Occ=0.000000D+00  E= 9.934966D-01
              MO Center= -3.1D-04, -1.7D-03, -5.6D-03, r^2= 5.9D+00
   Bfn.  Coefficient  Atom+Function         Bfn.  Coefficient  Atom+Function  
  ----- ------------  ---------------      ----- ------------  ---------------
     4     76.093399  1 N  s                 59    -19.408610  2 O  s          
   114    -19.406821  3 O  s                169    -19.415715  4 O  s          
    69     17.669190  2 O  pz               178    -13.369614  4 O  py         
   123     13.198912  3 O  py                 5      9.782445  1 N  s          
    35      9.083264  1 N  dzz              179     -8.974220  4 O  pz         

 Vector   70  Occ=0.000000D+00  E= 1.022574D+00
              MO Center= -2.3D-04, -1.6D-03, -5.6D-03, r^2= 5.3D+00
   Bfn.  Coefficient  Atom+Function         Bfn.  Coefficient  Atom+Function  
  ----- ------------  ---------------      ----- ------------  ---------------
    89     -3.863375  2 O  dyz               68      3.622047  2 O  py         
   124     -3.634115  3 O  pz               179      3.596821  4 O  pz         
    54     -3.050072  1 N  fyzz              87     -2.213963  2 O  dxz        
    67      2.077008  2 O  px               199      1.939352  4 O  dyz        
   200      1.947543  4 O  dzz              144      1.925517  3 O  dyz        

 Vector   71  Occ=0.000000D+00  E= 1.100055D+00
              MO Center= -5.4D-04, -2.1D-03, -5.4D-03, r^2= 4.9D+00
   Bfn.  Coefficient  Atom+Function         Bfn.  Coefficient  Atom+Function  
  ----- ------------  ---------------      ----- ------------  ---------------
    31      4.431290  1 N  dxy               59     -3.722087  2 O  s          
   114     -3.723122  3 O  s                169     -3.722724  4 O  s          
     4      3.272228  1 N  s                 69     -2.344400  2 O  pz         
     5      2.300451  1 N  s                 35      2.120583  1 N  dzz        
   199      1.983421  4 O  dyz              144     -1.953413  3 O  dyz        

 Vector   72  Occ=0.000000D+00  E= 1.178192D+00
              MO Center= -4.1D-04, -1.9D-03, -5.4D-03, r^2= 3.0D+00
   Bfn.  Coefficient  Atom+Function         Bfn.  Coefficient  Atom+Function  
  ----- ------------  ---------------      ----- ------------  ---------------
    12      3.326407  1 N  px                51     -2.983960  1 N  fxzz       
    46     -2.697957  1 N  fxxx              49     -2.701368  1 N  fxyy       
    13     -1.906836  1 N  py                54      1.712780  1 N  fyzz       
    52      1.659215  1 N  fyyy              47      1.218874  1 N  fxxy       
    15     -1.065143  1 N  px                87     -0.700155  2 O  dxz        

 Vector   73  Occ=0.000000D+00  E= 1.181792D+00
              MO Center=  2.5D-01,  4.2D-01, -1.3D-01, r^2= 4.5D+00
   Bfn.  Coefficient  Atom+Function         Bfn.  Coefficient  Atom+Function  
  ----- ------------  ---------------      ----- ------------  ---------------
   114     29.083673  3 O  s                 13    -21.022162  1 N  py         
   123    -21.025337  3 O  py                14     18.711661  1 N  pz         
    59    -17.989711  2 O  s                 69     17.434441  2 O  pz         
   124     13.949950  3 O  pz                12    -12.819185  1 N  px         
   122    -12.629554  3 O  px               169    -11.113250  4 O  s          

 Vector   74  Occ=0.000000D+00  E= 1.181823D+00
              MO Center= -2.5D-01, -4.2D-01,  1.2D-01, r^2= 4.5D+00
   Bfn.  Coefficient  Atom+Function         Bfn.  Coefficient  Atom+Function  
  ----- ------------  ---------------      ----- ------------  ---------------
   169     27.186047  4 O  s                 14     24.601574  1 N  pz         
    59    -23.204997  2 O  s                 69     22.497764  2 O  pz         
   178     19.839508  4 O  py                13     16.671516  1 N  py         
   179     13.573600  4 O  pz               177     10.838063  4 O  px         
    90    -10.720837  2 O  dzz              198      8.780037  4 O  dyy        

 Vector   75  Occ=0.000000D+00  E= 1.248891D+00
              MO Center=  7.3D-03,  1.2D-02, -7.6D-03, r^2= 3.1D+00
   Bfn.  Coefficient  Atom+Function         Bfn.  Coefficient  Atom+Function  
  ----- ------------  ---------------      ----- ------------  ---------------
   122      3.247454  3 O  px                32      2.514269  1 N  dxz        
    67     -2.161335  2 O  px               123     -1.870842  3 O  py         
    31     -1.686832  1 N  dxy               87      1.616385  2 O  dxz        
    30     -1.595502  1 N  dxx               34     -1.571430  1 N  dyz        
   197     -1.549629  4 O  dxz               33      1.486092  1 N  dyy        

 Vector   76  Occ=0.000000D+00  E= 1.248931D+00
              MO Center= -8.4D-03, -1.5D-02, -3.3D-03, r^2= 3.1D+00
   Bfn.  Coefficient  Atom+Function         Bfn.  Coefficient  Atom+Function  
  ----- ------------  ---------------      ----- ------------  ---------------
   177      3.127801  4 O  px                32      3.085334  1 N  dxz        
    67     -2.505603  2 O  px                87      1.811285  2 O  dxz        
   178     -1.786839  4 O  py                34     -1.667946  1 N  dyz        
    31      1.599068  1 N  dxy               68      1.444030  2 O  py         
   142     -1.430866  3 O  dxz               33     -1.317422  1 N  dyy        

 Vector   77  Occ=0.000000D+00  E= 1.253871D+00
              MO Center=  2.9D-01,  4.9D-01, -1.4D-01, r^2= 4.1D+00
   Bfn.  Coefficient  Atom+Function         Bfn.  Coefficient  Atom+Function  
  ----- ------------  ---------------      ----- ------------  ---------------
    14     14.639930  1 N  pz               169     12.430476  4 O  s          
    34    -11.740657  1 N  dyz               59    -10.548605  2 O  s          
    13     10.025705  1 N  py                35      8.534619  1 N  dzz        
    32     -7.430054  1 N  dxz               31     -7.143629  1 N  dxy        
    33     -6.634248  1 N  dyy               69      6.636171  2 O  pz         

 Vector   78  Occ=0.000000D+00  E= 1.253921D+00
              MO Center= -2.9D-01, -5.0D-01,  1.3D-01, r^2= 4.1D+00
   Bfn.  Coefficient  Atom+Function         Bfn.  Coefficient  Atom+Function  
  ----- ------------  ---------------      ----- ------------  ---------------
    34     15.056492  1 N  dyz              114     13.257413  3 O  s          
    13    -12.497053  1 N  py                14     11.246755  1 N  pz         
    59     -8.256244  2 O  s                 32      8.079845  1 N  dxz        
    12     -7.625689  1 N  px                35      6.936115  1 N  dzz        
    31     -6.302358  1 N  dxy               68     -5.662607  2 O  py         

 Vector   79  Occ=0.000000D+00  E= 1.433410D+00
              MO Center= -4.1D-04, -1.9D-03, -5.4D-03, r^2= 4.6D+00
   Bfn.  Coefficient  Atom+Function         Bfn.  Coefficient  Atom+Function  
  ----- ------------  ---------------      ----- ------------  ---------------
     4     66.589273  1 N  s                 69     14.603184  2 O  pz         
    59    -12.216401  2 O  s                114    -12.214654  3 O  s          
   169    -12.217746  4 O  s                178    -11.046764  4 O  py         
   123     10.905695  3 O  py                90     -8.083056  2 O  dzz        
     5     -7.898603  1 N  s                179     -7.416280  4 O  pz         

 Vector   80  Occ=0.000000D+00  E= 1.463947D+00
              MO Center= -8.4D-02, -1.4D-01,  6.3D-02, r^2= 3.2D+00
   Bfn.  Coefficient  Atom+Function         Bfn.  Coefficient  Atom+Function  
  ----- ------------  ---------------      ----- ------------  ---------------
    51      2.006079  1 N  fxzz              87      1.995841  2 O  dxz        
    26      1.816799  1 N  dxz               50     -1.570777  1 N  fxyz       
    48     -1.551918  1 N  fxxz              47     -1.471022  1 N  fxxy       
    32      1.455522  1 N  dxz              197      1.377787  4 O  dxz        
    53      1.301506  1 N  fyyz              54     -1.282790  1 N  fyzz       

 Vector   81  Occ=0.000000D+00  E= 1.463987D+00
              MO Center=  8.3D-02,  1.4D-01, -7.4D-02, r^2= 3.2D+00
   Bfn.  Coefficient  Atom+Function         Bfn.  Coefficient  Atom+Function  
  ----- ------------  ---------------      ----- ------------  ---------------
    50      2.453483  1 N  fxyz              53     -2.128827  1 N  fyyz       
    48      1.957656  1 N  fxxz              51      1.492974  1 N  fxzz       
    87      1.287901  2 O  dxz              122      1.188843  3 O  px         
   142      1.161044  3 O  dxz              141     -1.149842  3 O  dxy        
    26      1.119924  1 N  dxz               47     -1.059851  1 N  fxxy       

 Vector   82  Occ=0.000000D+00  E= 1.495567D+00
              MO Center= -4.8D-02, -8.2D-02,  3.8D-02, r^2= 3.0D+00
   Bfn.  Coefficient  Atom+Function         Bfn.  Coefficient  Atom+Function  
  ----- ------------  ---------------      ----- ------------  ---------------
    14      5.659808  1 N  pz                69     -4.503620  2 O  pz         
    48     -4.295700  1 N  fxxz             179     -3.321429  4 O  pz         
    13      3.125688  1 N  py                50      3.078474  1 N  fxyz       
   178     -3.091124  4 O  py                90      2.873112  2 O  dzz        
   199     -2.646993  4 O  dyz               53     -2.314085  1 N  fyyz       

 Vector   83  Occ=0.000000D+00  E= 1.495587D+00
              MO Center=  4.8D-02,  7.9D-02, -4.9D-02, r^2= 3.0D+00
   Bfn.  Coefficient  Atom+Function         Bfn.  Coefficient  Atom+Function  
  ----- ------------  ---------------      ----- ------------  ---------------
    13      4.852078  1 N  py               123     -3.923869  3 O  py         
    14     -3.492000  1 N  pz                12      2.925471  1 N  px         
    69      2.809165  2 O  pz               178     -2.752487  4 O  py         
   124      2.688485  3 O  pz               144     -2.514898  3 O  dyz        
    48      2.495904  1 N  fxxz             115     -2.462489  3 O  s          

 Vector   84  Occ=0.000000D+00  E= 1.540065D+00
              MO Center= -4.0D-04, -1.9D-03, -5.5D-03, r^2= 3.5D+00
   Bfn.  Coefficient  Atom+Function         Bfn.  Coefficient  Atom+Function  
  ----- ------------  ---------------      ----- ------------  ---------------
    12      5.087374  1 N  px                47      2.959464  1 N  fxxy       
    13     -2.919714  1 N  py                51      2.624331  1 N  fxzz       
    87      2.317528  2 O  dxz               67     -1.538141  2 O  px         
   122     -1.538495  3 O  px               177     -1.537681  4 O  px         
    54     -1.515299  1 N  fyzz              89     -1.333603  2 O  dyz        

 Vector   85  Occ=0.000000D+00  E= 1.540126D+00
              MO Center= -4.5D-04, -2.0D-03, -5.4D-03, r^2= 4.9D+00
   Bfn.  Coefficient  Atom+Function         Bfn.  Coefficient  Atom+Function  
  ----- ------------  ---------------      ----- ------------  ---------------
    54      6.662127  1 N  fyzz              51      3.818597  1 N  fxzz       
    49     -2.882704  1 N  fxyy             109     -2.168194  2 O  fyzz       
    89      1.871370  2 O  dyz               52     -1.674384  1 N  fyyy       
    47     -1.643096  1 N  fxxy             165      1.288857  3 O  fzzz       
   220     -1.293532  4 O  fzzz             106     -1.243692  2 O  fxzz       

 Vector   86  Occ=0.000000D+00  E= 1.697846D+00
              MO Center=  1.6D-01,  3.0D-01,  2.5D-01, r^2= 4.6D+00
   Bfn.  Coefficient  Atom+Function         Bfn.  Coefficient  Atom+Function  
  ----- ------------  ---------------      ----- ------------  ---------------
    14      4.724084  1 N  pz                69      3.259531  2 O  pz         
    11     -2.975836  1 N  pz                55     -2.800478  1 N  fzzz       
    53     -2.637293  1 N  fyyz             110     -2.600855  2 O  fzzz       
   123     -2.511145  3 O  py                48     -2.343485  1 N  fxxz       
    13     -2.052384  1 N  py               157      1.801459  3 O  fxxy       

 Vector   87  Occ=0.000000D+00  E= 1.697857D+00
              MO Center= -1.6D-01, -3.0D-01, -2.6D-01, r^2= 4.6D+00
   Bfn.  Coefficient  Atom+Function         Bfn.  Coefficient  Atom+Function  
  ----- ------------  ---------------      ----- ------------  ---------------
    13      4.141351  1 N  py               178      2.737745  4 O  py         
    10     -2.609380  1 N  py                54     -2.466858  1 N  fyzz       
    14      2.453620  1 N  pz                52     -2.320637  1 N  fyyy       
    47     -2.304458  1 N  fxxy              12      2.277774  1 N  px         
   219     -2.040422  4 O  fyzz             170      1.994360  4 O  s          

 Vector   88  Occ=0.000000D+00  E= 1.699255D+00
              MO Center= -1.7D-01, -2.7D-01,  3.8D-01, r^2= 3.6D+00
   Bfn.  Coefficient  Atom+Function         Bfn.  Coefficient  Atom+Function  
  ----- ------------  ---------------      ----- ------------  ---------------
    67      2.537377  2 O  px               177     -2.035693  4 O  px         
   106     -1.668973  2 O  fxzz              68     -1.456215  2 O  py         
   101     -1.307422  2 O  fxxx             104     -1.300655  2 O  fxyy       
   178      1.167361  4 O  py               211      1.106751  4 O  fxxx       
   216      1.107931  4 O  fxzz             214      1.100896  4 O  fxyy       

 Vector   89  Occ=0.000000D+00  E= 1.699257D+00
              MO Center=  1.7D-01,  2.6D-01, -3.9D-01, r^2= 3.6D+00
   Bfn.  Coefficient  Atom+Function         Bfn.  Coefficient  Atom+Function  
  ----- ------------  ---------------      ----- ------------  ---------------
   122      2.639837  3 O  px               161     -1.836254  3 O  fxzz       
   177     -1.754820  4 O  px               123     -1.516387  3 O  py         
   216      1.469833  4 O  fxzz             156     -1.332834  3 O  fxxx       
   159     -1.334284  3 O  fxyy             164      1.057678  3 O  fyzz       
   178      1.006119  4 O  py               162      0.900271  3 O  fyyy       

 Vector   90  Occ=0.000000D+00  E= 1.734978D+00
              MO Center= -4.5D-04, -2.0D-03, -5.4D-03, r^2= 4.2D+00
   Bfn.  Coefficient  Atom+Function         Bfn.  Coefficient  Atom+Function  
  ----- ------------  ---------------      ----- ------------  ---------------
    67      1.676626  2 O  px               122      1.675873  3 O  px         
   177      1.676865  4 O  px               161     -1.548501  3 O  fxzz       
   216     -1.543240  4 O  fxzz             106     -1.470111  2 O  fxzz       
    12     -1.361848  1 N  px                15      1.299033  1 N  px         
    68     -0.962236  2 O  py               123     -0.961646  3 O  py         

 Vector   91  Occ=0.000000D+00  E= 1.793494D+00
              MO Center= -3.9D-04, -1.8D-03, -5.7D-03, r^2= 2.8D+00
   Bfn.  Coefficient  Atom+Function         Bfn.  Coefficient  Atom+Function  
  ----- ------------  ---------------      ----- ------------  ---------------
   136      0.946474  3 O  dxz              191     -0.915309  4 O  dxz        
   142     -0.704289  3 O  dxz              197      0.681239  4 O  dxz        
    80     -0.626628  2 O  dxy              193      0.550721  4 O  dyz        
    79     -0.535664  2 O  dxx               82      0.536050  2 O  dyy        
   138     -0.518542  3 O  dyz               86      0.465932  2 O  dxy        

 Vector   92  Occ=0.000000D+00  E= 1.795281D+00
              MO Center= -2.5D-01, -4.3D-01,  1.9D-01, r^2= 3.1D+00
   Bfn.  Coefficient  Atom+Function         Bfn.  Coefficient  Atom+Function  
  ----- ------------  ---------------      ----- ------------  ---------------
   177      1.950497  4 O  px                67     -1.802940  2 O  px         
   102     -1.750256  2 O  fxxy              32      1.657708  1 N  dxz        
   106      1.223262  2 O  fxzz             178     -1.119359  4 O  py         
   213     -1.090382  4 O  fxxz             215     -1.064163  4 O  fxyz       
    68      1.034332  2 O  py               214     -0.981784  4 O  fxyy       

 Vector   93  Occ=0.000000D+00  E= 1.795367D+00
              MO Center=  2.5D-01,  4.2D-01, -2.0D-01, r^2= 3.1D+00
   Bfn.  Coefficient  Atom+Function         Bfn.  Coefficient  Atom+Function  
  ----- ------------  ---------------      ----- ------------  ---------------
   122      2.168165  3 O  px               160      1.255298  3 O  fxyz       
   123     -1.244042  3 O  py                67     -1.210220  2 O  px         
   102     -1.159060  2 O  fxxy             156     -1.121416  3 O  fxxx       
    32      1.045604  1 N  dxz              163     -1.048404  3 O  fyyz       
   159     -1.039182  3 O  fxyy             177     -0.953542  4 O  px         

 Vector   94  Occ=0.000000D+00  E= 1.857220D+00
              MO Center= -2.5D-01, -4.3D-01,  8.6D-02, r^2= 4.2D+00
   Bfn.  Coefficient  Atom+Function         Bfn.  Coefficient  Atom+Function  
  ----- ------------  ---------------      ----- ------------  ---------------
    34     11.147742  1 N  dyz              179      7.659659  4 O  pz         
    68     -6.763991  2 O  py                32      5.962341  1 N  dxz        
    35      5.392702  1 N  dzz              114      5.184554  3 O  s          
    31     -4.915983  1 N  dxy              178     -4.816033  4 O  py         
    67     -3.954895  2 O  px                33     -3.896436  1 N  dyy        

 Vector   95  Occ=0.000000D+00  E= 1.857296D+00
              MO Center=  2.5D-01,  4.3D-01, -9.7D-02, r^2= 4.2D+00
   Bfn.  Coefficient  Atom+Function         Bfn.  Coefficient  Atom+Function  
  ----- ------------  ---------------      ----- ------------  ---------------
    34      9.170731  1 N  dyz              124     -8.452813  3 O  pz         
[...]
   174     11.303809  4 O  px                64     -8.472436  2 O  px         
   175     -6.487290  4 O  py               201     -5.683098  4 O  fxxx       
   204     -5.684190  4 O  fxyy             206     -5.673625  4 O  fxzz       
    65      4.862636  2 O  py               177      4.808761  4 O  px         
    96      4.275909  2 O  fxzz              91      4.254602  2 O  fxxx       

 Vector  209  Occ=0.000000D+00  E= 1.339054D+01
              MO Center= -5.6D-03, -1.1D-02, -8.3D-03, r^2= 3.1D+00
   Bfn.  Coefficient  Atom+Function         Bfn.  Coefficient  Atom+Function  
  ----- ------------  ---------------      ----- ------------  ---------------
   174      8.325077  4 O  px                64      8.237203  2 O  px         
   119      8.203888  3 O  px               175     -4.777644  4 O  py         
    65     -4.727505  2 O  py               120     -4.708344  3 O  py         
   201     -4.196639  4 O  fxxx             204     -4.196439  4 O  fxyy       
   206     -4.174782  4 O  fxzz              91     -4.152286  2 O  fxxx       

 Vector  210  Occ=0.000000D+00  E= 1.387227D+01
              MO Center= -2.9D-04, -1.7D-03, -5.4D-03, r^2= 2.9D+00
   Bfn.  Coefficient  Atom+Function         Bfn.  Coefficient  Atom+Function  
  ----- ------------  ---------------      ----- ------------  ---------------
    65      9.299730  2 O  py               121     -9.327129  3 O  pz         
   176      9.229141  4 O  pz                54     -5.909395  1 N  fyzz       
    64      5.333388  2 O  px               120     -4.740194  3 O  py         
   175     -4.559106  4 O  py                92     -4.291561  2 O  fxxy       
    97     -4.291604  2 O  fyyy             148      4.293279  3 O  fxxz       

 Vector  211  Occ=0.000000D+00  E= 1.466295D+01
              MO Center= -2.4D-01, -3.9D-01,  3.6D-01, r^2= 2.5D+00
   Bfn.  Coefficient  Atom+Function         Bfn.  Coefficient  Atom+Function  
  ----- ------------  ---------------      ----- ------------  ---------------
    34     13.860657  1 N  dyz               65    -10.799425  2 O  py         
   176     10.611145  4 O  pz               114     10.356847  3 O  s          
    68     -9.232733  2 O  py                32      7.639109  1 N  dxz        
   178     -6.656208  4 O  py               179      6.658444  4 O  pz         
    64     -6.141119  2 O  px               169     -5.918212  4 O  s          

 Vector  212  Occ=0.000000D+00  E= 1.466319D+01
              MO Center=  2.4D-01,  3.9D-01, -3.7D-01, r^2= 2.5D+00
   Bfn.  Coefficient  Atom+Function         Bfn.  Coefficient  Atom+Function  
  ----- ------------  ---------------      ----- ------------  ---------------
   121     11.802276  3 O  pz               124     10.470073  3 O  pz         
    59     -9.396992  2 O  s                169      8.546493  4 O  s          
   179      8.240428  4 O  pz                35      7.907232  1 N  dzz        
    31     -6.706399  1 N  dxy               34     -6.513660  1 N  dyz        
   120      6.244210  3 O  py               148     -6.139835  3 O  fxxz       

 Vector  213  Occ=0.000000D+00  E= 1.547354D+01
              MO Center= -4.9D-04, -2.0D-03, -5.7D-03, r^2= 2.7D+00
   Bfn.  Coefficient  Atom+Function         Bfn.  Coefficient  Atom+Function  
  ----- ------------  ---------------      ----- ------------  ---------------
     4     63.688148  1 N  s                 69     17.918013  2 O  pz         
   178    -13.563544  4 O  py               123     13.379026  3 O  py         
    59    -12.423082  2 O  s                114    -12.417564  3 O  s          
   169    -12.431574  4 O  s                179     -9.102201  4 O  pz         
   124     -8.817801  3 O  pz               122      8.034044  3 O  px         

 Vector  214  Occ=0.000000D+00  E= 1.654131D+01
              MO Center=  3.1D-01,  5.5D-01,  1.3D-01, r^2= 2.0D+00
   Bfn.  Coefficient  Atom+Function         Bfn.  Coefficient  Atom+Function  
  ----- ------------  ---------------      ----- ------------  ---------------
   114     14.896092  3 O  s                 59    -12.408159  2 O  s          
    14     10.050517  1 N  pz                69      8.286970  2 O  pz         
   112      7.714699  3 O  s                123     -7.321663  3 O  py         
    66      7.085112  2 O  pz                13     -7.006034  1 N  py         
    57     -6.421648  2 O  s                120     -6.151935  3 O  py         

 Vector  215  Occ=0.000000D+00  E= 1.654151D+01
              MO Center= -3.1D-01, -5.5D-01, -1.5D-01, r^2= 2.0D+00
   Bfn.  Coefficient  Atom+Function         Bfn.  Coefficient  Atom+Function  
  ----- ------------  ---------------      ----- ------------  ---------------
   169     15.759797  4 O  s                 59    -10.041157  2 O  s          
    13      8.863100  1 N  py                14      8.276046  1 N  pz         
   167      8.156145  4 O  s                178      7.917076  4 O  py         
    69      6.708609  2 O  pz               175      6.725375  4 O  py         
    66      5.744981  2 O  pz               114     -5.734871  3 O  s          

 Vector  216  Occ=0.000000D+00  E= 1.659694D+01
              MO Center= -1.1D-03, -3.1D-03, -5.8D-03, r^2= 2.2D+00
   Bfn.  Coefficient  Atom+Function         Bfn.  Coefficient  Atom+Function  
  ----- ------------  ---------------      ----- ------------  ---------------
    57      6.840315  2 O  s                112      6.836572  3 O  s          
   167      6.849832  4 O  s                 59      6.408805  2 O  s          
   114      6.401540  3 O  s                169      6.425176  4 O  s          
     5     -3.521018  1 N  s                 82     -3.072835  2 O  dyy        
   139     -3.056224  3 O  dzz              194     -3.055471  4 O  dzz        

 Vector  217  Occ=0.000000D+00  E= 1.721922D+01
              MO Center=  4.4D-02,  1.1D-01,  5.1D-01, r^2= 1.7D+00
   Bfn.  Coefficient  Atom+Function         Bfn.  Coefficient  Atom+Function  
  ----- ------------  ---------------      ----- ------------  ---------------
    14     21.826637  1 N  pz                69     16.994016  2 O  pz         
    66     12.893012  2 O  pz                90     -8.729684  2 O  dzz        
   123     -7.354368  3 O  py                11      6.974235  1 N  pz         
    59     -6.941078  2 O  s                 98     -5.944586  2 O  fyyz       
    93     -5.907599  2 O  fxxz             100     -5.700966  2 O  fzzz       

 Vector  218  Occ=0.000000D+00  E= 1.721944D+01
              MO Center= -4.5D-02, -1.2D-01, -5.2D-01, r^2= 1.7D+00
   Bfn.  Coefficient  Atom+Function         Bfn.  Coefficient  Atom+Function  
  ----- ------------  ---------------      ----- ------------  ---------------
    13     18.993238  1 N  py               178     12.057857  4 O  py         
    12     10.785994  1 N  px               123     10.463057  3 O  py         
   175      9.245792  4 O  py               120      8.098929  3 O  py         
   179      7.695557  4 O  pz                34     -7.286724  1 N  dyz        
   198      6.662847  4 O  dyy              177      6.609548  4 O  px         

 Vector  219  Occ=0.000000D+00  E= 1.967994D+01
              MO Center= -5.8D-04, -2.2D-03, -5.5D-03, r^2= 2.7D+00
   Bfn.  Coefficient  Atom+Function         Bfn.  Coefficient  Atom+Function  
  ----- ------------  ---------------      ----- ------------  ---------------
    50     13.977757  1 N  fxyz              53     12.184409  1 N  fyyz       
     4     10.809962  1 N  s                 66     -9.481419  2 O  pz         
    57      7.960379  2 O  s                112      7.959014  3 O  s          
   167      7.964043  4 O  s                 59     -7.582823  2 O  s          
   114     -7.589722  3 O  s                169     -7.578346  4 O  s          

 Vector  220  Occ=0.000000D+00  E= 2.476777D+01
              MO Center= -4.4D-04, -1.9D-03, -5.5D-03, r^2= 2.1D+00
   Bfn.  Coefficient  Atom+Function         Bfn.  Coefficient  Atom+Function  
  ----- ------------  ---------------      ----- ------------  ---------------
     2     25.092563  1 N  s                  4    -21.108766  1 N  s          
     1     12.497137  1 N  s                 35     -7.735568  1 N  dzz        
    69     -7.045794  2 O  pz                25      6.313814  1 N  dxy        
    33     -6.023779  1 N  dyy               31     -5.990862  1 N  dxy        
    66      5.904965  2 O  pz               178      5.333575  4 O  py         


   alpha - beta orbital overlaps 
   ----------------------------- 


   alpha      1      2      3      4      5      6      7      8      9     10
    beta      1      2      3      4      5      6      7      8      9     10
 overlap   0.999  0.991  0.992  1.000  1.000  1.000  1.000  1.000  1.000  0.996


   alpha     11     12     13     14     15     16     17     18     19     20
    beta     11     12     13     14     15     16     17     18     19     20
 overlap   0.996  0.991  0.991  0.990  0.990  1.000  1.000  0.999  0.943  0.943


   alpha     21     22     23     24     25     26     27     28     29     30
    beta     21     22     23     24     25     26     27     28     29     30
 overlap   1.000  0.998  1.000  1.000  0.999  1.000  1.000  1.000  0.987  0.987


   alpha     31     32     33     34     35     36     37     38     39     40
    beta     32     31     33     34     35     36     37     38     39     40
 overlap   1.000  1.000  0.993  0.993  1.000  1.000  1.000  1.000  1.000  1.000


   alpha     41     42     43     44     45     46     47     48     49     50
    beta     41     42     43     44     45     46     47     48     49     51
 overlap   1.000  0.999  0.999  1.000  1.000  1.000  1.000  0.999  0.999  1.000


   alpha     51     52     53     54     55     56     57     58     59     60
    beta     50     52     53     54     55     56     57     58     59     60
 overlap   1.000  1.000  1.000  1.000  1.000  1.000  1.000  1.000  0.999  0.999


   alpha     61     62     63     64     65     66     67     68     69     70
    beta     61     62     63     64     65     66     67     68     69     70
 overlap   1.000  0.998  0.998  1.000  0.998  0.998  0.994  0.994  1.000  1.000


   alpha     71     72     73     74     75     76     77     78     79     80
    beta     71     72     73     74     75     76     77     78     79     80
 overlap   1.000  1.000  1.000  1.000  1.000  1.000  1.000  1.000  1.000  1.000


   alpha     81     82     83     84     85     86     87     88     89     90
    beta     81     82     83     84     85     86     87     88     89     90
 overlap   1.000  0.999  0.999  1.000  1.000  0.999  0.999  0.989  0.989  1.000


   alpha     91     92     93     94     95     96     97     98     99    100
    beta     93     91     92     94     95     96     98     97     99    100
 overlap   1.000  0.999  0.999  0.999  0.999  0.998  1.000  1.000  1.000  0.999


   alpha    101    102    103    104    105    106    107    108    109    110
    beta    101    102    103    104    105    106    107    108    109    110
 overlap   0.998  0.996  0.998  0.999  0.999  0.995  0.995  0.999  0.999  1.000


   alpha    111    112    113    114    115    116    117    118    119    120
    beta    111    112    113    114    115    117    116    118    119    120
 overlap   1.000  0.993  0.993  1.000  1.000  1.000  1.000  0.999  0.999  1.000


   alpha    121    122    123    124    125    126    127    128    129    130
    beta    121    122    123    124    125    126    127    128    129    130
 overlap   1.000  1.000  1.000  0.981  0.981  0.991  0.991  1.000  1.000  1.000


   alpha    131    132    133    134    135    136    137    138    139    140
    beta    131    132    133    134    135    136    137    138    139    140
 overlap   0.999  0.999  1.000  0.999  0.999  1.000  1.000  1.000  1.000  1.000


   alpha    141    142    143    144    145    146    147    148    149    150
    beta    141    142    143    144    145    146    147    148    149    150
 overlap   1.000  1.000  1.000  1.000  1.000  1.000  1.000  1.000  1.000  0.998


   alpha    151    152    153    154    155    156    157    158    159    160
    beta    151    152    153    154    155    156    157    159    158    160
 overlap   0.998  1.000  0.999  0.999  0.992  0.992  0.999  1.000  0.999  1.000


   alpha    161    162    163    164    165    166    167    168    169    170
    beta    161    162    163    164    165    166    167    168    169    170
 overlap   1.000  1.000  0.999  0.999  0.969  0.969  1.000  1.000  0.998  0.998


   alpha    171    172    173    174    175    176    177    178    179    180
    beta    171    172    173    174    175    176    177    178    179    180
 overlap   0.890  0.890  1.000  0.999  0.999  1.000  1.000  0.998  0.998  0.982


   alpha    181    182    183    184    185    186    187    188    189    190
    beta    181    182    183    184    186    185    187    188    189    190
 overlap   0.982  0.989  0.989  1.000  0.902  0.902  1.000  1.000  1.000  1.000


   alpha    191    192    193    194    195    196    197    198    199    200
    beta    193    191    192    194    195    196    197    198    199    200
 overlap   1.000  1.000  1.000  1.000  0.999  0.999  1.000  1.000  1.000  1.000


   alpha    201    202    203    204    205    206    207    208    209    210
    beta    201    202    203    204    205    206    207    208    209    210
 overlap   1.000  1.000  0.999  0.999  1.000  1.000  1.000  1.000  1.000  1.000


   alpha    211    212    213    214    215    216    217    218    219    220
    beta    211    212    213    214    215    216    217    218    219    220
 overlap   0.999  0.999  1.000  1.000  1.000  1.000  1.000  1.000  1.000  1.000


     --------------------------
     Expectation value of S2:  
     --------------------------
      <S2> =      0.7527 (Exact =     0.7500)


 center of mass
 --------------
 x =  -0.00075503 y =  -0.00354103 z =  -0.01028141

 moments of inertia (a.u.)
 ------------------
         241.907687006796         -59.555114762175           4.178854832147
         -59.555114762175         172.313150885437          -2.413524524179
           4.178854832147          -2.413524524179         138.289195589078

     Multipole analysis of the density
     ---------------------------------

     L   x y z        total         alpha         beta         nuclear
     -   - - -        -----         -----         ----         -------
     0   0 0 0     -0.000000    -16.000000    -15.000000     31.000000

     1   1 0 0     -0.000003      0.011911      0.011493     -0.023406
     1   0 1 0      0.000001      0.056369      0.053404     -0.109772
     1   0 0 1     -0.000043      0.164501      0.154179     -0.318724

     2   2 0 0    -15.581011    -16.904661    -15.855497     17.179148
     2   1 1 0     -0.731905    -15.994042    -14.524980     29.787116
     2   1 0 1      0.051367      1.122365      1.018854     -2.089852
     2   0 2 0    -16.436294    -35.594980    -32.829174     51.987860
     2   0 1 1     -0.029640     -0.648352     -0.589564      1.208275
     2   0 0 2    -16.854403    -44.733739    -41.128804     69.008140


 Task  times  cpu:       19.0s     wall:       19.9s


                                NWChem Input Module
                                -------------------


 Summary of allocated global arrays
-----------------------------------
  No active global arrays


MA_summarize_allocated_blocks: starting scan ...
heap block 'gridpts', handle 124, address 0x112518a8:
	type of elements:		double precision
	number of elements:		33554432
	address of client space:	0x11251900
	index for client space:		11349625
	total number of bytes:		268435552
MA_summarize_allocated_blocks: scan completed: 1 heap block, 0 stack blocks
MA usage statistics:

	allocation statistics:
					      heap	     stack
					      ----	     -----
	current number of blocks	         1	         0
	maximum number of blocks	        21	        53
	current total bytes		 268435552	         0
	maximum total bytes		 268863016	  33152328
	maximum total K-bytes		    268864	     33153
	maximum total M-bytes		       269	        34


                                     CITATION
                                     --------
                Please cite the following reference when publishing
                           results obtained with NWChem:

          E. Apra, E. J. Bylaska, W. A. de Jong, N. Govind, K. Kowalski,
       T. P. Straatsma, M. Valiev, H. J. J. van Dam, Y. Alexeev, J. Anchell,
       V. Anisimov, F. W. Aquino, R. Atta-Fynn, J. Autschbach, N. P. Bauman,
     J. C. Becca, D. E. Bernholdt, K. Bhaskaran-Nair, S. Bogatko, P. Borowski,
         J. Boschen, J. Brabec, A. Bruner, E. Cauet, Y. Chen, G. N. Chuev,
      C. J. Cramer, J. Daily, M. J. O. Deegan, T. H. Dunning Jr., M. Dupuis,
   K. G. Dyall, G. I. Fann, S. A. Fischer, A. Fonari, H. Fruchtl, L. Gagliardi,
      J. Garza, N. Gawande, S. Ghosh, K. Glaesemann, A. W. Gotz, J. Hammond,
       V. Helms, E. D. Hermes, K. Hirao, S. Hirata, M. Jacquelin, L. Jensen,
   B. G. Johnson, H. Jonsson, R. A. Kendall, M. Klemm, R. Kobayashi, V. Konkov,
      S. Krishnamoorthy, M. Krishnan, Z. Lin, R. D. Lins, R. J. Littlefield,
      A. J. Logsdail, K. Lopata, W. Ma, A. V. Marenich, J. Martin del Campo,
   D. Mejia-Rodriguez, J. E. Moore, J. M. Mullin, T. Nakajima, D. R. Nascimento,
    J. A. Nichols, P. J. Nichols, J. Nieplocha, A. Otero-de-la-Roza, B. Palmer,
    A. Panyala, T. Pirojsirikul, B. Peng, R. Peverati, J. Pittner, L. Pollack,
   R. M. Richard, P. Sadayappan, G. C. Schatz, W. A. Shelton, D. W. Silverstein,
   D. M. A. Smith, T. A. Soares, D. Song, M. Swart, H. L. Taylor, G. S. Thomas,
            V. Tipparaju, D. G. Truhlar, K. Tsemekhman, T. Van Voorhis,
      A. Vazquez-Mayagoitia, P. Verma, O. Villa, A. Vishnu, K. D. Vogiatzis,
        D. Wang, J. H. Weare, M. J. Williamson, T. L. Windus, K. Wolinski,
        A. T. Wong, Q. Wu, C. Yang, Q. Yu, M. Zacharias, Z. Zhang, Y. Zhao,
                                and R. J. Harrison
                        "NWChem: Past, present, and future
                         J. Chem. Phys. 152, 184102 (2020)
                               doi:10.1063/5.0004997

                                      AUTHORS
                                      -------
  E. Apra, E. J. Bylaska, N. Govind, K. Kowalski, M. Valiev, D. Mejia-Rodriguez,
       A. Kunitsa, N. P. Bauman, A. Panyala, W. A. de Jong, T. P. Straatsma,
   H. J. J. van Dam, D. Wang, T. L. Windus, J. Hammond, J. Autschbach, A. Woods,
    K. Bhaskaran-Nair, J. Brabec, K. Lopata, S. A. Fischer, S. Krishnamoorthy,
     M. Jacquelin, W. Ma, M. Klemm, O. Villa, Y. Chen, V. Anisimov, F. Aquino,
     S. Hirata, M. T. Hackler, E. Hermes, L. Jensen, J. E. Moore, J. C. Becca,
      V. Konjkov, T. Risthaus, M. Malagoli, A. Marenich, A. Otero-de-la-Roza,
        J. Mullin, P. Nichols, R. Peverati, J. Pittner, Y. Zhao, P.-D. Fan,
        A. Fonari, M. J. Williamson, R. J. Harrison, J. R. Rehr, M. Dupuis,
     D. Silverstein, D. M. A. Smith, J. Nieplocha, V. Tipparaju, M. Krishnan,
     B. E. Van Kuiken, A. Vazquez-Mayagoitia, M. Swart, Q. Wu, T. Van Voorhis,
     A. A. Auer, M. Nooijen, L. D. Crosby, E. Brown, G. Cisneros, G. I. Fann,
   H. Fruchtl, J. Garza, K. Hirao, R. A. Kendall, J. A. Nichols, K. Tsemekhman,
    K. Wolinski, J. Anchell, D. E. Bernholdt, P. Borowski, T. Clark, D. Clerc,
   H. Dachsel, M. J. O. Deegan, K. Dyall, D. Elwood, E. Glendening, M. Gutowski,
   A. C. Hess, J. Jaffe, B. G. Johnson, J. Ju, R. Kobayashi, R. Kutteh, Z. Lin,
   R. Littlefield, X. Long, B. Meng, T. Nakajima, S. Niu, L. Pollack, M. Rosing,
   K. Glaesemann, G. Sandrone, M. Stave, H. Taylor, G. Thomas, J. H. van Lenthe,
                               A. T. Wong, Z. Zhang.

 Total times  cpu:       19.1s     wall:       20.0s
