 argument  1 = proton/mol.nwi
                                         
                                         


             Northwest Computational Chemistry Package (NWChem) 7.2.2
             --------------------------------------------------------


                    Environmental Molecular Sciences Laboratory
                       Pacific Northwest National Laboratory
                                Richland, WA 99352

                              Copyright (c) 1994-2022
                       Pacific Northwest National Laboratory
                            Battelle Memorial Institute

             NWChem is an open-source computational chemistry package
                        distributed under the terms of the
                      Educational Community License (ECL) 2.0
             A copy of the license is included with this distribution
                              in the LICENSE.TXT file

                                  ACKNOWLEDGMENT
                                  --------------

            This software and its documentation were developed at the
            EMSL at Pacific Northwest National Laboratory, a multiprogram
            national laboratory, operated for the U.S. Department of Energy
            by Battelle under Contract Number DE-AC05-76RL01830. Support
            for this work was provided by the Department of Energy Office
            of Biological and Environmental Research, Office of Basic
            Energy Sciences, and the Office of Advanced Scientific Computing.


           Job information
           ---------------

    hostname        = r202.ib.bridges2.psc.edu
    program         = nwchem
    date            = Wed Oct  2 13:37:48 2024

    compiled        = Mon_Mar_18_17:03:37_2024
    source          = /ocean/projects/pscstaff/mmadrid/nwchem-7.2.2
    nwchem branch   = 7.2.2
    nwchem revision = 74936fb9
    ga revision     = 5.8.0
    use scalapack   = F
    input           = proton/mol.nwi
    prefix          = dft.
    data base       = .//dft.db
    status          = startup
    nproc           =       15
    time left       =     -1s



           Memory information
           ------------------

    heap     =   67108858 doubles =    512.0 Mbytes
    stack    =   67108863 doubles =    512.0 Mbytes
    global   =  134217728 doubles =   1024.0 Mbytes (distinct from heap & stack)
    total    =  268435449 doubles =   2048.0 Mbytes
    verify   = yes
    hardfail = no 


           Directory information
           ---------------------

  0 permanent = ./
  0 scratch   = /jet/home/hmt47/nwchem_scratch/




                                NWChem Input Module
                                -------------------


  library name resolved from: environment
  library file name is: </opt/packages/nwchem/nwchem7.2.2/share/nwchem/libraries/>
  


 Summary of "ao basis" -> "" (cartesian)
 ------------------------------------------------------------------------------
       Tag                 Description            Shells   Functions and Types
 ---------------- ------------------------------  ------  ---------------------
 *                        aug-cc-pVTZ                 on all atoms 


  pbe96 is a nonlocal functional; adding pw91lda local functional. 

 Scaling coordinates for geometry "geometry" by  1.889725989
 (inverse scale =  0.529177249)



                             Geometry "geometry" -> ""
                             -------------------------

 Output coordinates in angstroms (scale by  1.889725989 to convert to a.u.)

  No.       Tag          Charge          X              Y              Z
 ---- ---------------- ---------- -------------- -------------- --------------
    1 C                    6.0000     0.13156820    -0.08533798     0.01735142
    2 C                    6.0000    -0.02503335    -0.03977868     1.56888594
    3 O                    8.0000    -0.05759974     1.14058083    -0.51170725
    4 O                    8.0000     0.37289930    -1.08776988    -0.60676546
    5 Cl                  17.0000     1.11922473     1.16597547     2.24420930
    6 Cl                  17.0000    -1.71475084     0.44143614     1.93840321
    7 Cl                  17.0000     0.31122803    -1.63599979     2.25606427
    8 H                    1.0000     0.03855390     1.04139259    -1.48013606

      Atomic Mass 
      ----------- 

      C                 12.000000
      O                 15.994910
      Cl                34.968850
      H                  1.007825


 Effective nuclear repulsion energy (a.u.)     540.1464903253

            Nuclear Dipole moment (a.u.) 
            ----------------------------
        X                 Y               Z
 ---------------- ---------------- ----------------
    -3.0857484578     0.4293101611   205.1241089544


            XYZ format geometry
            -------------------
     8
 geometry
 C                     0.13156820    -0.08533798     0.01735142
 C                    -0.02503335    -0.03977868     1.56888594
 O                    -0.05759974     1.14058083    -0.51170725
 O                     0.37289930    -1.08776988    -0.60676546
 Cl                    1.11922473     1.16597547     2.24420930
 Cl                   -1.71475084     0.44143614     1.93840321
 Cl                    0.31122803    -1.63599979     2.25606427
 H                     0.03855390     1.04139259    -1.48013606

 ==============================================================================
                                internuclear distances
 ------------------------------------------------------------------------------
       center one      |      center two      | atomic units |  angstroms
 ------------------------------------------------------------------------------
    2 C                |   1 C                |     2.94813  |     1.56008
    3 O                |   1 C                |     2.54837  |     1.34854
    4 O                |   1 C                |     2.27760  |     1.20525
    5 Cl               |   2 C                |     3.39059  |     1.79422
    6 Cl               |   2 C                |     3.39271  |     1.79534
    7 Cl               |   2 C                |     3.34498  |     1.77009
    8 H                |   3 O                |     1.84859  |     0.97823
 ------------------------------------------------------------------------------
                         number of included internuclear distances:          7
 ==============================================================================



 ==============================================================================
                                 internuclear angles
 ------------------------------------------------------------------------------
        center 1       |       center 2       |       center 3       |  degrees
 ------------------------------------------------------------------------------
    2 C                |   1 C                |   3 O                |   110.46
    2 C                |   1 C                |   4 O                |   124.01
    3 O                |   1 C                |   4 O                |   125.52
    1 C                |   2 C                |   5 Cl               |   109.26
    1 C                |   2 C                |   6 Cl               |   107.88
    1 C                |   2 C                |   7 Cl               |   109.92
    5 Cl               |   2 C                |   6 Cl               |   110.04
    5 Cl               |   2 C                |   7 Cl               |   109.80
    6 Cl               |   2 C                |   7 Cl               |   109.91
    1 C                |   3 O                |   8 H                |   106.40
 ------------------------------------------------------------------------------
                            number of included internuclear angles:         10
 ==============================================================================





                           NWChem Geometry Optimization
                           ----------------------------


 maximum gradient threshold         (gmax) =   0.000450
 rms gradient threshold             (grms) =   0.000300
 maximum cartesian step threshold   (xmax) =   0.001800
 rms cartesian step threshold       (xrms) =   0.001200
 fixed trust radius                (trust) =   0.300000
 maximum step size to saddle      (sadstp) =   0.100000
 energy precision                  (eprec) =   5.0D-06
 maximum number of steps          (nptopt) =   40
 initial hessian option           (inhess) =    0
 line search option               (linopt) =    1
 hessian update option            (modupd) =    1
 saddle point option              (modsad) =    0
 initial eigen-mode to follow     (moddir) =    0
 initial variable to follow       (vardir) =    0
 follow first negative mode     (firstneg) =    T
 apply conjugacy                    (opcg) =    F
 source of zmatrix                         =           


          -------------------
          Energy Minimization
          -------------------


 Using old Hessian from previous optimization

          --------
          Step   0
          --------


                         Geometry "geometry" -> "geometry"
                         ---------------------------------

 Output coordinates in angstroms (scale by  1.889725989 to convert to a.u.)

  No.       Tag          Charge          X              Y              Z
 ---- ---------------- ---------- -------------- -------------- --------------
    1 C                    6.0000     0.13156820    -0.08533798     0.01735142
    2 C                    6.0000    -0.02503335    -0.03977868     1.56888594
    3 O                    8.0000    -0.05759974     1.14058083    -0.51170725
    4 O                    8.0000     0.37289930    -1.08776988    -0.60676546
    5 Cl                  17.0000     1.11922473     1.16597547     2.24420930
    6 Cl                  17.0000    -1.71475084     0.44143614     1.93840321
    7 Cl                  17.0000     0.31122803    -1.63599979     2.25606427
    8 H                    1.0000     0.03855390     1.04139259    -1.48013606

      Atomic Mass 
      ----------- 

      C                 12.000000
      O                 15.994910
      Cl                34.968850
      H                  1.007825


 Effective nuclear repulsion energy (a.u.)     540.1464903253

            Nuclear Dipole moment (a.u.) 
            ----------------------------
        X                 Y               Z
 ---------------- ---------------- ----------------
    -3.0857484578     0.4293101611   205.1241089544


                                 NWChem DFT Module
                                 -----------------


                      Basis "ao basis" -> "ao basis" (cartesian)
                      -----
  C (Carbon)
  ----------
            Exponent  Coefficients 
       -------------- ---------------------------------------------------------
  1 S  8.23600000E+03  0.000531
  1 S  1.23500000E+03  0.004108
  1 S  2.80800000E+02  0.021087
  1 S  7.92700000E+01  0.081853
  1 S  2.55900000E+01  0.234817
  1 S  8.99700000E+00  0.434401
  1 S  3.31900000E+00  0.346129
  1 S  3.64300000E-01 -0.008983

  2 S  8.23600000E+03 -0.000113
  2 S  1.23500000E+03 -0.000878
  2 S  2.80800000E+02 -0.004540
  2 S  7.92700000E+01 -0.018133
  2 S  2.55900000E+01 -0.055760
  2 S  8.99700000E+00 -0.126895
  2 S  3.31900000E+00 -0.170352
  2 S  3.64300000E-01  0.598684

  3 S  9.05900000E-01  1.000000

  4 S  1.28500000E-01  1.000000

  5 S  4.40200000E-02  1.000000

  6 P  1.87100000E+01  0.014031
  6 P  4.13300000E+00  0.086866
  6 P  1.20000000E+00  0.290216

  7 P  3.82700000E-01  1.000000

  8 P  1.20900000E-01  1.000000

  9 P  3.56900000E-02  1.000000

 10 D  1.09700000E+00  1.000000

 11 D  3.18000000E-01  1.000000

 12 D  1.00000000E-01  1.000000

 13 F  7.61000000E-01  1.000000

 14 F  2.68000000E-01  1.000000

  O (Oxygen)
  ----------
            Exponent  Coefficients 
       -------------- ---------------------------------------------------------
  1 S  1.53300000E+04  0.000508
  1 S  2.29900000E+03  0.003929
  1 S  5.22400000E+02  0.020243
  1 S  1.47300000E+02  0.079181
  1 S  4.75500000E+01  0.230687
  1 S  1.67600000E+01  0.433118
  1 S  6.20700000E+00  0.350260
  1 S  6.88200000E-01 -0.008154

  2 S  1.53300000E+04 -0.000115
  2 S  2.29900000E+03 -0.000895
  2 S  5.22400000E+02 -0.004636
  2 S  1.47300000E+02 -0.018724
  2 S  4.75500000E+01 -0.058463
  2 S  1.67600000E+01 -0.136463
  2 S  6.20700000E+00 -0.175740
  2 S  6.88200000E-01  0.603418

  3 S  1.75200000E+00  1.000000

  4 S  2.38400000E-01  1.000000

  5 S  7.37600000E-02  1.000000

  6 P  3.44600000E+01  0.015928
  6 P  7.74900000E+00  0.099740
  6 P  2.28000000E+00  0.310492

  7 P  7.15600000E-01  1.000000

  8 P  2.14000000E-01  1.000000

  9 P  5.97400000E-02  1.000000

 10 D  2.31400000E+00  1.000000

 11 D  6.45000000E-01  1.000000

 12 D  2.14000000E-01  1.000000

 13 F  1.42800000E+00  1.000000

 14 F  5.00000000E-01  1.000000

  Cl (Chlorine)
  -------------
            Exponent  Coefficients 
       -------------- ---------------------------------------------------------
  1 S  4.56100000E+05  0.000049
  1 S  6.83300000E+04  0.000383
  1 S  1.55500000E+04  0.002009
  1 S  4.40500000E+03  0.008386
  1 S  1.43900000E+03  0.029470
  1 S  5.20400000E+02  0.087833
  1 S  2.03100000E+02  0.211473
  1 S  8.39600000E+01  0.365364
  1 S  3.62000000E+01  0.340884
  1 S  1.58300000E+01  0.102133
  1 S  6.33400000E+00  0.003117
  1 S  2.69400000E+00  0.001058
  1 S  4.31300000E-01  0.000156

  2 S  4.56100000E+05 -0.000014
  2 S  6.83300000E+04 -0.000107
  2 S  1.55500000E+04 -0.000565
  2 S  4.40500000E+03 -0.002361
  2 S  1.43900000E+03 -0.008459
  2 S  5.20400000E+02 -0.025964
  2 S  2.03100000E+02 -0.068636
  2 S  8.39600000E+01 -0.141874
  2 S  3.62000000E+01 -0.199319
  2 S  1.58300000E+01 -0.019566
  2 S  6.33400000E+00  0.499741
  2 S  2.69400000E+00  0.563736
  2 S  4.31300000E-01 -0.008351

  3 S  4.56100000E+05  0.000004
  3 S  6.83300000E+04  0.000032
  3 S  1.55500000E+04  0.000171
  3 S  4.40500000E+03  0.000714
  3 S  1.43900000E+03  0.002567
  3 S  5.20400000E+02  0.007886
  3 S  2.03100000E+02  0.021087
  3 S  8.39600000E+01  0.044226
  3 S  3.62000000E+01  0.065167
  3 S  1.58300000E+01  0.006030
  3 S  6.33400000E+00 -0.206495
  3 S  2.69400000E+00 -0.405871
  3 S  4.31300000E-01  0.725661

  4 S  9.76800000E-01  1.000000

  5 S  1.62500000E-01  1.000000

  6 S  5.91000000E-02  1.000000

  7 P  6.63300000E+02  0.002404
  7 P  1.56800000E+02  0.019215
  7 P  4.99800000E+01  0.088510
  7 P  1.84200000E+01  0.256020
  7 P  7.24000000E+00  0.436927
  7 P  2.92200000E+00  0.350334
  7 P  3.81800000E-01 -0.004584

  8 P  6.63300000E+02 -0.000652
  8 P  1.56800000E+02 -0.005194
  8 P  4.99800000E+01 -0.024694
  8 P  1.84200000E+01 -0.072817
  8 P  7.24000000E+00 -0.134030
  8 P  2.92200000E+00 -0.094774
  8 P  3.81800000E-01  0.564667

  9 P  1.02200000E+00  1.000000

 10 P  1.30100000E-01  1.000000

 11 P  4.19000000E-02  1.000000

 12 D  1.04600000E+00  1.000000

 13 D  3.44000000E-01  1.000000

 14 D  1.35000000E-01  1.000000

 15 F  7.06000000E-01  1.000000

 16 F  3.12000000E-01  1.000000

  H (Hydrogen)
  ------------
            Exponent  Coefficients 
       -------------- ---------------------------------------------------------
  1 S  3.38700000E+01  0.006068
  1 S  5.09500000E+00  0.045308
  1 S  1.15900000E+00  0.202822

  2 S  3.25800000E-01  1.000000

  3 S  1.02700000E-01  1.000000

  4 S  2.52600000E-02  1.000000

  5 P  1.40700000E+00  1.000000

  6 P  3.88000000E-01  1.000000

  7 P  1.02000000E-01  1.000000

  8 D  1.05700000E+00  1.000000

  9 D  2.47000000E-01  1.000000



 Summary of "ao basis" -> "ao basis" (cartesian)
 ------------------------------------------------------------------------------
       Tag                 Description            Shells   Functions and Types
 ---------------- ------------------------------  ------  ---------------------
 C                        aug-cc-pVTZ               14       55   5s4p3d2f
 O                        aug-cc-pVTZ               14       55   5s4p3d2f
 Cl                       aug-cc-pVTZ               16       59   6s5p3d2f
 H                        aug-cc-pVTZ                9       25   4s3p2d




 Summary of "ao basis" -> "ao basis" (cartesian)
 ------------------------------------------------------------------------------
       Tag                 Description            Shells   Functions and Types
 ---------------- ------------------------------  ------  ---------------------
 C                        aug-cc-pVTZ               14       55   5s4p3d2f
 O                        aug-cc-pVTZ               14       55   5s4p3d2f
 Cl                       aug-cc-pVTZ               16       59   6s5p3d2f
 H                        aug-cc-pVTZ                9       25   4s3p2d


  Caching 1-el integrals 

            General Information
            -------------------
          SCF calculation type: DFT
          Wavefunction type:  closed shell.
          No. of atoms     :     8
          No. of electrons :    80
           Alpha electrons :    40
            Beta electrons :    40
          Charge           :     0
          Spin multiplicity:     1
          Use of symmetry is: off; symmetry adaption is: off
          Maximum number of iterations: 200
          AO basis - number of functions:   422
                     number of shells:   113
          Convergence on energy requested:  1.00D-06
          Convergence on density requested:  1.00D-05
          Convergence on gradient requested:  5.00D-04

              XC Information
              --------------
          PerdewBurkeErnzerhof Exchange Functional  1.000          
            Perdew 1991 LDA Correlation Functional  1.000 local    
           PerdewBurkeErnz. Correlation Functional  1.000 non-local

             Grid Information
             ----------------
          Grid used for XC integration:  medium    
          Radial quadrature: Mura-Knowles        
          Angular quadrature: Lebedev. 
          Tag              B.-S. Rad. Rad. Pts. Rad. Cut. Ang. Pts.
          ---              ---------- --------- --------- ---------
          C                   0.70       49          14.0       434
          O                   0.60       49          14.0       434
          Cl                  1.00       88          16.0       590
          H                   0.35       45          15.0       434
          Grid pruning is: on 
          Number of quadrature shells:   505
          Spatial weights used:  Erf1

          Convergence Information
          -----------------------
          Convergence aids based upon iterative change in 
          total energy or number of iterations. 
          Levelshifting, if invoked, occurs when the 
          HOMO/LUMO gap drops below (HL_TOL):  1.00D-02
          DIIS, if invoked, will attempt to extrapolate 
          using up to (NFOCK): 10 stored Fock matrices.

                    Damping(40%)  Levelshifting(0.0)       DIIS
                  --------------- ------------------- ---------------
          dE  on:    start            0.00D+00            start   
          dE off:  200 iters          0.00D+00          200 iters 


      Screening Tolerance Information
      -------------------------------
          Density screening/tol_rho:  1.00D-10
          AO Gaussian exp screening on grid/accAOfunc:  14
          CD Gaussian exp screening on grid/accCDfunc:  20
          XC Gaussian exp screening on grid/accXCfunc:  20
          Schwarz screening/accCoul:  1.00D-08


 Forcing the number of linearly dependent vectors to be  0

      Superposition of Atomic Density Guess
      -------------------------------------

 Sum of atomic energies:       -1603.86350203
   Time after variat. SCF:      0.7
   Time prior to 1st pass:      0.7

 Grid_pts file          = /jet/home/hmt47/nwchem_scratch//dft.gridpts.00
 Record size in doubles =  12289        No. of grid_pts per rec  =   3070
 Max. records in memory =      9        Max. recs in file   =  67550051


           Memory utilization after 1st SCF pass: 
           Heap Space remaining (MW):       33.43            33432866
          Stack Space remaining (MW):       67.11            67106628

   convergence    iter        energy       DeltaE   RMS-Dens  Diis-err    time
 ---------------- ----- ----------------- --------- --------- ---------  ------
 d=40,ls=0.0,diis     1  -1608.2816380590 -2.15D+03  1.04D-02  5.47D+01     3.4
 d=40,ls=0.0,diis     2  -1607.6207391317  6.61D-01  1.04D-02  8.93D+00    16.0
 d=40,ls=0.0,diis     3  -1607.0900064838  5.31D-01  3.68D-03  3.25D+00    28.4
 d=40,ls=0.0,diis     4  -1607.2066832017 -1.17D-01  1.26D-03  5.37D-01    40.3
 d=40,ls=0.0,diis     5  -1607.2168122167 -1.01D-02  5.00D-04  8.81D-02    52.9
  Resetting Diis
 d=40,ls=0.0,diis     6  -1607.2166908970  1.21D-04  2.73D-04  2.05D-02    64.9
 d=40,ls=0.0,diis     7  -1607.2163714479  3.19D-04  2.80D-04  5.41D-03    76.8
 d=40,ls=0.0,diis     8  -1607.2152314010  1.14D-03  9.89D-05  8.34D-03    90.2
 d=40,ls=0.0,diis     9  -1607.2158425354 -6.11D-04  4.54D-05  1.16D-03   102.9
 d=40,ls=0.0,diis    10  -1607.2159574897 -1.15D-04  3.69D-05  2.58D-04   114.9
 d=40,ls=0.0,diis    11  -1607.2160029665 -4.55D-05  1.45D-05  3.78D-05   127.0
 d=40,ls=0.0,diis    12  -1607.2160175482 -1.46D-05  1.14D-05  4.91D-06   139.0
 d=40,ls=0.0,diis    13  -1607.2160227639 -5.22D-06  7.93D-06  7.60D-07   150.9
 d=40,ls=0.0,diis    14  -1607.2160247787 -2.01D-06  1.11D-05  1.42D-07   162.9
 d=40,ls=0.0,diis    15  -1607.2160255904 -8.12D-07  2.39D-06  2.72D-08   174.9


         Total DFT energy =    -1607.216025590389
      One electron energy =    -3291.670997921068
           Coulomb energy =     1256.514911295125
    Exchange-Corr. energy =     -112.206429289766
 Nuclear repulsion energy =      540.146490325320

 Numeric. integr. density =       80.000000237435

     Total iterative time =    174.3s



                       DFT Final Molecular Orbital Analysis
                       ------------------------------------

 Vector    1  Occ=2.000000D+00  E=-1.007351D+02
              MO Center= -1.7D+00,  4.4D-01,  1.9D+00, r^2= 3.3D-03
   Bfn.  Coefficient  Atom+Function         Bfn.  Coefficient  Atom+Function  
  ----- ------------  ---------------      ----- ------------  ---------------
   280      1.002260  6 Cl s                284     -0.046390  6 Cl s          
    59     -0.032481  2 C  s                 60      0.031866  2 C  s          
   285     -0.028316  6 Cl s          

 Vector    2  Occ=2.000000D+00  E=-1.007346D+02
              MO Center=  1.1D+00,  1.2D+00,  2.2D+00, r^2= 3.3D-03
   Bfn.  Coefficient  Atom+Function         Bfn.  Coefficient  Atom+Function  
  ----- ------------  ---------------      ----- ------------  ---------------
   221      1.002234  5 Cl s                225     -0.046096  5 Cl s          
    60      0.031546  2 C  s                 59     -0.030813  2 C  s          
   226     -0.028244  5 Cl s          

 Vector    3  Occ=2.000000D+00  E=-1.007317D+02
              MO Center=  3.1D-01, -1.6D+00,  2.3D+00, r^2= 3.1D-03
   Bfn.  Coefficient  Atom+Function         Bfn.  Coefficient  Atom+Function  
  ----- ------------  ---------------      ----- ------------  ---------------
   339      1.002367  7 Cl s                343     -0.045469  7 Cl s          
    59     -0.037940  2 C  s                 60      0.034702  2 C  s          
   344     -0.029296  7 Cl s          

 Vector    4  Occ=2.000000D+00  E=-1.883859D+01
              MO Center= -5.8D-02,  1.1D+00, -5.1D-01, r^2= 1.5D-02
   Bfn.  Coefficient  Atom+Function         Bfn.  Coefficient  Atom+Function  
  ----- ------------  ---------------      ----- ------------  ---------------
   111      0.984690  3 O  s                 59     -0.104071  2 C  s          
   113      0.067918  3 O  s                114     -0.063023  3 O  s          
    13     -0.060992  1 C  py               169      0.060180  4 O  s          
    54      0.053362  1 C  fyzz               4     -0.050949  1 C  s          
    33     -0.050085  1 C  dyy              145      0.041584  3 O  dzz        

 Vector    5  Occ=2.000000D+00  E=-1.878442D+01
              MO Center=  3.7D-01, -1.1D+00, -6.1D-01, r^2= 1.5D-02
   Bfn.  Coefficient  Atom+Function         Bfn.  Coefficient  Atom+Function  
  ----- ------------  ---------------      ----- ------------  ---------------
   166      0.984269  4 O  s                 59      0.126755  2 C  s          
     4     -0.079907  1 C  s                168      0.068951  4 O  s          
    60     -0.064680  2 C  s                 13      0.055479  1 C  py         
    34     -0.043148  1 C  dyz               53      0.042729  1 C  fyyz       
    14      0.039968  1 C  pz                33     -0.036700  1 C  dyy        

 Vector    6  Occ=2.000000D+00  E=-1.009216D+01
              MO Center= -2.5D-02, -4.0D-02,  1.6D+00, r^2= 2.8D-02
   Bfn.  Coefficient  Atom+Function         Bfn.  Coefficient  Atom+Function  
  ----- ------------  ---------------      ----- ------------  ---------------
    56      1.011836  2 C  s                 59     -0.327517  2 C  s          
     4      0.170767  1 C  s                 57      0.082870  2 C  s          
    69      0.083197  2 C  pz                14      0.078510  1 C  pz         
    58      0.067900  2 C  s                 35      0.039864  1 C  dzz        
   169     -0.032943  4 O  s                284      0.030154  6 Cl s          

 Vector    7  Occ=2.000000D+00  E=-1.005838D+01
              MO Center=  1.3D-01, -8.5D-02,  1.7D-02, r^2= 2.8D-02
   Bfn.  Coefficient  Atom+Function         Bfn.  Coefficient  Atom+Function  
  ----- ------------  ---------------      ----- ------------  ---------------
     1      1.013077  1 C  s                169     -0.117972  4 O  s          
     2      0.086279  1 C  s                  3      0.069821  1 C  s          
     4     -0.067210  1 C  s                178     -0.049056  4 O  py         
   170      0.046809  4 O  s                 53     -0.043171  1 C  fyyz       
    10     -0.042564  1 C  py                33     -0.042612  1 C  dyy        

 Vector    8  Occ=2.000000D+00  E=-9.218860D+00
              MO Center= -1.7D+00,  4.4D-01,  1.9D+00, r^2= 6.6D-02
   Bfn.  Coefficient  Atom+Function         Bfn.  Coefficient  Atom+Function  
  ----- ------------  ---------------      ----- ------------  ---------------
   281      0.898861  6 Cl s                283      0.112116  6 Cl s          
    59      0.044871  2 C  s                 60     -0.032367  2 C  s          
   282     -0.031600  6 Cl s          

 Vector    9  Occ=2.000000D+00  E=-9.218331D+00
              MO Center=  1.1D+00,  1.2D+00,  2.2D+00, r^2= 6.6D-02
   Bfn.  Coefficient  Atom+Function         Bfn.  Coefficient  Atom+Function  
  ----- ------------  ---------------      ----- ------------  ---------------
   222      0.899015  5 Cl s                224      0.112086  5 Cl s          
    59      0.042335  2 C  s                 60     -0.032033  2 C  s          
   223     -0.031380  5 Cl s          

 Vector   10  Occ=2.000000D+00  E=-9.215732D+00
              MO Center=  3.1D-01, -1.6D+00,  2.3D+00, r^2= 6.6D-02
   Bfn.  Coefficient  Atom+Function         Bfn.  Coefficient  Atom+Function  
  ----- ------------  ---------------      ----- ------------  ---------------
   340      0.898414  7 Cl s                342      0.111935  7 Cl s          
    59      0.053100  2 C  s                 60     -0.036646  2 C  s          
   341     -0.032206  7 Cl s          

 Vector   11  Occ=2.000000D+00  E=-7.045456D+00
              MO Center= -1.7D+00,  4.4D-01,  1.9D+00, r^2= 5.9D-02
   Bfn.  Coefficient  Atom+Function         Bfn.  Coefficient  Atom+Function  
  ----- ------------  ---------------      ----- ------------  ---------------
   286      0.968128  6 Cl px               287     -0.270896  6 Cl py         
   288     -0.218372  6 Cl pz               289      0.118827  6 Cl px         
    59     -0.087817  2 C  s                 60     -0.051194  2 C  s          
   295      0.049973  6 Cl px               322     -0.043542  6 Cl fxyy       
   324     -0.043632  6 Cl fxzz             319     -0.042022  6 Cl fxxx       

 Vector   12  Occ=2.000000D+00  E=-7.044946D+00
              MO Center=  1.1D+00,  1.2D+00,  2.2D+00, r^2= 5.9D-02
   Bfn.  Coefficient  Atom+Function         Bfn.  Coefficient  Atom+Function  
  ----- ------------  ---------------      ----- ------------  ---------------
   228      0.685966  5 Cl py               227      0.658029  5 Cl px         
   229      0.393776  5 Cl pz               231      0.083204  5 Cl py         
   230      0.081163  5 Cl px                59      0.080384  2 C  s          
    60      0.055518  2 C  s                232      0.050347  5 Cl pz         
   226     -0.039564  5 Cl s                236      0.037877  5 Cl px         

 Vector   13  Occ=2.000000D+00  E=-7.042441D+00
              MO Center=  3.1D-01, -1.6D+00,  2.3D+00, r^2= 5.8D-02
   Bfn.  Coefficient  Atom+Function         Bfn.  Coefficient  Atom+Function  
  ----- ------------  ---------------      ----- ------------  ---------------
   346      0.928774  7 Cl py               347     -0.406565  7 Cl pz         
   345     -0.196535  7 Cl px               349      0.119721  7 Cl py         
    59     -0.110527  2 C  s                350     -0.055918  7 Cl pz         
   355      0.054261  7 Cl py                60     -0.052036  2 C  s          
   344      0.043931  7 Cl s                379     -0.042891  7 Cl fxxy       

 Vector   14  Occ=2.000000D+00  E=-7.033552D+00
              MO Center= -1.7D+00,  4.4D-01,  1.9D+00, r^2= 5.8D-02
   Bfn.  Coefficient  Atom+Function         Bfn.  Coefficient  Atom+Function  
  ----- ------------  ---------------      ----- ------------  ---------------
   288      0.770612  6 Cl pz               287      0.558094  6 Cl py         
   286      0.328909  6 Cl px               291      0.061862  6 Cl pz         
   290      0.044660  6 Cl py               294      0.032950  6 Cl pz         
    86      0.031218  2 C  dxy               89     -0.029966  2 C  dyz        
    68      0.029085  2 C  py               225     -0.028330  5 Cl s          

 Vector   15  Occ=2.000000D+00  E=-7.033240D+00
              MO Center= -1.7D+00,  4.4D-01,  1.9D+00, r^2= 5.8D-02
   Bfn.  Coefficient  Atom+Function         Bfn.  Coefficient  Atom+Function  
  ----- ------------  ---------------      ----- ------------  ---------------
   287      0.794181  6 Cl py               288     -0.612408  6 Cl pz         
   286      0.086500  6 Cl px               290      0.062406  6 Cl py         
   291     -0.049411  6 Cl pz                86      0.036760  2 C  dxy        
   293      0.034313  6 Cl py                68      0.031178  2 C  py         
     4     -0.030945  1 C  s                343      0.029735  7 Cl s          

 Vector   16  Occ=2.000000D+00  E=-7.033021D+00
              MO Center=  1.1D+00,  1.2D+00,  2.2D+00, r^2= 5.8D-02
   Bfn.  Coefficient  Atom+Function         Bfn.  Coefficient  Atom+Function  
  ----- ------------  ---------------      ----- ------------  ---------------
   227      0.726680  5 Cl px               229     -0.600324  5 Cl pz         
   228     -0.353514  5 Cl py               230      0.057333  5 Cl px         
   232     -0.048429  5 Cl pz                89      0.039962  2 C  dyz        
   233      0.031249  5 Cl px                 4     -0.028402  1 C  s          
   231     -0.028495  5 Cl py               284      0.027946  6 Cl s          

 Vector   17  Occ=2.000000D+00  E=-7.032689D+00
              MO Center=  1.1D+00,  1.2D+00,  2.2D+00, r^2= 5.8D-02
   Bfn.  Coefficient  Atom+Function         Bfn.  Coefficient  Atom+Function  
  ----- ------------  ---------------      ----- ------------  ---------------
   229     -0.711699  5 Cl pz               228      0.660366  5 Cl py         
   227     -0.266127  5 Cl px               232     -0.057897  5 Cl pz         
   231      0.050886  5 Cl py                87      0.035712  2 C  dxz        
     4     -0.033430  1 C  s                235     -0.030111  5 Cl pz         
   234      0.028954  5 Cl py               343      0.027516  7 Cl s          

 Vector   18  Occ=2.000000D+00  E=-7.030304D+00
              MO Center=  3.1D-01, -1.6D+00,  2.3D+00, r^2= 5.8D-02
   Bfn.  Coefficient  Atom+Function         Bfn.  Coefficient  Atom+Function  
  ----- ------------  ---------------      ----- ------------  ---------------
   345      0.981799  7 Cl px               346      0.217124  7 Cl py         
   348      0.076461  7 Cl px                86      0.043778  2 C  dxy        
   351      0.042681  7 Cl px               354      0.033316  7 Cl px         
    87     -0.031648  2 C  dxz              378     -0.031036  7 Cl fxxx       
   383     -0.030964  7 Cl fxzz             381     -0.030544  7 Cl fxyy       

 Vector   19  Occ=2.000000D+00  E=-7.030030D+00
              MO Center=  3.1D-01, -1.6D+00,  2.3D+00, r^2= 5.8D-02
   Bfn.  Coefficient  Atom+Function         Bfn.  Coefficient  Atom+Function  
  ----- ------------  ---------------      ----- ------------  ---------------
   347      0.927701  7 Cl pz               346      0.380075  7 Cl py         
   345     -0.104320  7 Cl px               350      0.077697  7 Cl pz         
     4      0.065400  1 C  s                353      0.038564  7 Cl pz         
    69      0.035570  2 C  pz                89      0.035002  2 C  dyz        
   356      0.031839  7 Cl pz               380     -0.031140  7 Cl fxxz       

 Vector   20  Occ=2.000000D+00  E=-1.057540D+00
              MO Center=  8.9D-02,  3.4D-01, -4.6D-01, r^2= 1.1D+00
   Bfn.  Coefficient  Atom+Function         Bfn.  Coefficient  Atom+Function  
  ----- ------------  ---------------      ----- ------------  ---------------
   112      0.353594  3 O  s                  2      0.237851  1 C  s          
   167      0.220137  4 O  s                114      0.183175  3 O  s          
   169      0.101204  4 O  s                113      0.096972  3 O  s          
   399      0.071040  8 H  s                170      0.070168  4 O  s          
     3      0.067120  1 C  s                398      0.065196  8 H  s          

 Vector   21  Occ=2.000000D+00  E=-9.746307D-01
              MO Center=  2.0D-01, -2.2D-01, -4.6D-01, r^2= 1.3D+00
   Bfn.  Coefficient  Atom+Function         Bfn.  Coefficient  Atom+Function  
  ----- ------------  ---------------      ----- ------------  ---------------
   167      0.367770  4 O  s                112     -0.289300  3 O  s          
   169      0.247504  4 O  s                114     -0.221758  3 O  s          
     7     -0.139830  1 C  py                 2      0.107139  1 C  s          
   168      0.102660  4 O  s                113     -0.078473  3 O  s          
   170      0.076810  4 O  s                 10     -0.069382  1 C  py         

 Vector   22  Occ=2.000000D+00  E=-8.789482D-01
              MO Center= -5.8D-02, -3.1D-02,  1.8D+00, r^2= 2.2D+00
   Bfn.  Coefficient  Atom+Function         Bfn.  Coefficient  Atom+Function  
  ----- ------------  ---------------      ----- ------------  ---------------
    59      0.406413  2 C  s                 57      0.277235  2 C  s          
   341      0.255998  7 Cl s                282      0.253478  6 Cl s          
   223      0.251899  5 Cl s                  4     -0.161797  1 C  s          
   343      0.141642  7 Cl s                 60     -0.139057  2 C  s          
   225      0.139053  5 Cl s                284      0.139660  6 Cl s          

 Vector   23  Occ=2.000000D+00  E=-7.801049D-01
              MO Center= -4.5D-01,  5.9D-01,  2.0D+00, r^2= 2.6D+00
   Bfn.  Coefficient  Atom+Function         Bfn.  Coefficient  Atom+Function  
  ----- ------------  ---------------      ----- ------------  ---------------
   282      0.459955  6 Cl s                223     -0.385137  5 Cl s          
   284      0.329280  6 Cl s                225     -0.277500  5 Cl s          
    61     -0.089565  2 C  px               341     -0.075610  7 Cl s          
    64     -0.069346  2 C  px               285      0.062418  6 Cl s          
   343     -0.052060  7 Cl s                226     -0.049360  5 Cl s          

 Vector   24  Occ=2.000000D+00  E=-7.784852D-01
              MO Center=  2.8D-01, -5.9D-01,  2.1D+00, r^2= 2.7D+00
   Bfn.  Coefficient  Atom+Function         Bfn.  Coefficient  Atom+Function  
  ----- ------------  ---------------      ----- ------------  ---------------
   341      0.485035  7 Cl s                343      0.338842  7 Cl s          
   223     -0.311196  5 Cl s                225     -0.220993  5 Cl s          
   282     -0.180256  6 Cl s                284     -0.125636  6 Cl s          
    62     -0.092346  2 C  py               344      0.071143  7 Cl s          
    65     -0.065937  2 C  py               226     -0.047251  5 Cl s          

 Vector   25  Occ=2.000000D+00  E=-6.644735D-01
              MO Center= -1.8D-02,  3.3D-01,  6.4D-01, r^2= 3.0D+00
   Bfn.  Coefficient  Atom+Function         Bfn.  Coefficient  Atom+Function  
  ----- ------------  ---------------      ----- ------------  ---------------
     2      0.225792  1 C  s                 59      0.196249  2 C  s          
   282     -0.192518  6 Cl s                223     -0.190852  5 Cl s          
    57      0.177134  2 C  s                225     -0.161540  5 Cl s          
   284     -0.162214  6 Cl s                341     -0.151882  7 Cl s          
   118      0.141762  3 O  pz               343     -0.129862  7 Cl s          

 Vector   26  Occ=2.000000D+00  E=-5.680728D-01
              MO Center= -5.1D-03,  2.9D-01,  6.5D-01, r^2= 4.3D+00
   Bfn.  Coefficient  Atom+Function         Bfn.  Coefficient  Atom+Function  
  ----- ------------  ---------------      ----- ------------  ---------------
    59      0.520717  2 C  s                 57      0.239606  2 C  s          
     4     -0.230810  1 C  s                343     -0.224017  7 Cl s          
   341     -0.207437  7 Cl s                118     -0.177987  3 O  pz         
   121     -0.161654  3 O  pz               284     -0.156278  6 Cl s          
   225     -0.152655  5 Cl s                399      0.145778  8 H  s          

 Vector   27  Occ=2.000000D+00  E=-4.913553D-01
              MO Center=  9.0D-03,  1.2D-01,  1.1D+00, r^2= 3.5D+00
   Bfn.  Coefficient  Atom+Function         Bfn.  Coefficient  Atom+Function  
  ----- ------------  ---------------      ----- ------------  ---------------
    59      0.436582  2 C  s                 63      0.178959  2 C  pz         
     4     -0.171781  1 C  s                 66      0.159706  2 C  pz         
   225     -0.147082  5 Cl s                  8     -0.138233  1 C  pz         
   284     -0.134236  6 Cl s                223     -0.119867  5 Cl s          
    11     -0.109154  1 C  pz               289      0.109629  6 Cl px         

 Vector   28  Occ=2.000000D+00  E=-4.683620D-01
              MO Center=  1.0D-01, -2.5D-01, -5.6D-02, r^2= 3.2D+00
   Bfn.  Coefficient  Atom+Function         Bfn.  Coefficient  Atom+Function  
  ----- ------------  ---------------      ----- ------------  ---------------
   167      0.205751  4 O  s                114      0.203208  3 O  s          
   172     -0.183003  4 O  py               175     -0.168821  4 O  py         
     2     -0.158923  1 C  s                169      0.146967  4 O  s          
   117      0.131567  3 O  py               112      0.123112  3 O  s          
   120      0.123184  3 O  py               115      0.118545  3 O  s          

 Vector   29  Occ=2.000000D+00  E=-4.679745D-01
              MO Center= -4.0D-02,  2.7D-01,  1.1D+00, r^2= 3.7D+00
   Bfn.  Coefficient  Atom+Function         Bfn.  Coefficient  Atom+Function  
  ----- ------------  ---------------      ----- ------------  ---------------
    61      0.163134  2 C  px                 6      0.141549  1 C  px         
    64      0.134017  2 C  px               284      0.132074  6 Cl s          
   225     -0.129489  5 Cl s                223     -0.128768  5 Cl s          
     9      0.127870  1 C  px               282      0.124427  6 Cl s          
    67      0.110768  2 C  px               171      0.108808  4 O  px         

 Vector   30  Occ=2.000000D+00  E=-4.378852D-01
              MO Center=  1.4D-01, -5.2D-01,  1.6D+00, r^2= 3.9D+00
   Bfn.  Coefficient  Atom+Function         Bfn.  Coefficient  Atom+Function  
  ----- ------------  ---------------      ----- ------------  ---------------
    62      0.188408  2 C  py               349     -0.173458  7 Cl py         
   352     -0.171538  7 Cl py                65      0.160917  2 C  py         
   343      0.144736  7 Cl s                341      0.143027  7 Cl s          
    68      0.115515  2 C  py               114     -0.111972  3 O  s          
   118     -0.101783  3 O  pz               230     -0.100873  5 Cl px         

 Vector   31  Occ=2.000000D+00  E=-4.170676D-01
              MO Center= -3.3D-02,  2.6D-01,  5.2D-01, r^2= 3.6D+00
   Bfn.  Coefficient  Atom+Function         Bfn.  Coefficient  Atom+Function  
  ----- ------------  ---------------      ----- ------------  ---------------
   116      0.184047  3 O  px               119      0.183758  3 O  px         
     6      0.159626  1 C  px               171      0.147078  4 O  px         
   174      0.142803  4 O  px                 9      0.131249  1 C  px         
    61     -0.123607  2 C  px                64     -0.113208  2 C  px         
   122      0.108662  3 O  px               292      0.107444  6 Cl px         

 Vector   32  Occ=2.000000D+00  E=-3.951629D-01
              MO Center=  9.8D-02,  1.9D-01, -2.5D-01, r^2= 2.8D+00
   Bfn.  Coefficient  Atom+Function         Bfn.  Coefficient  Atom+Function  
  ----- ------------  ---------------      ----- ------------  ---------------
   114      0.178849  3 O  s                117      0.179676  3 O  py         
   120      0.173372  3 O  py               173      0.150939  4 O  pz         
   115      0.149366  3 O  s                118      0.147229  3 O  pz         
   172      0.147428  4 O  py               176      0.146801  4 O  pz         
   112      0.144153  3 O  s                169     -0.143694  4 O  s          

 Vector   33  Occ=2.000000D+00  E=-3.305769D-01
              MO Center=  7.5D-03, -1.3D-01,  1.1D+00, r^2= 4.7D+00
   Bfn.  Coefficient  Atom+Function         Bfn.  Coefficient  Atom+Function  
  ----- ------------  ---------------      ----- ------------  ---------------
   348      0.179924  7 Cl px               171      0.177969  4 O  px         
   174      0.178485  4 O  px               232      0.171306  5 Cl pz         
   290      0.143920  6 Cl py               235      0.140060  5 Cl pz         
   119     -0.138300  3 O  px               116     -0.136792  3 O  px         
   351      0.136731  7 Cl px               177      0.104917  4 O  px         

 Vector   34  Occ=2.000000D+00  E=-3.279252D-01
              MO Center= -1.5D-01,  3.6D-01,  1.8D+00, r^2= 4.2D+00
   Bfn.  Coefficient  Atom+Function         Bfn.  Coefficient  Atom+Function  
  ----- ------------  ---------------      ----- ------------  ---------------
   291     -0.188071  6 Cl pz               230      0.182294  5 Cl px         
   290     -0.153414  6 Cl py               294     -0.148373  6 Cl pz         
   231     -0.146961  5 Cl py               233      0.137978  5 Cl px         
   350      0.132665  7 Cl pz               293     -0.125247  6 Cl py         
   234     -0.117571  5 Cl py               353      0.109567  7 Cl pz         

 Vector   35  Occ=2.000000D+00  E=-3.155559D-01
              MO Center=  5.8D-02,  1.1D-01,  1.7D+00, r^2= 4.5D+00
   Bfn.  Coefficient  Atom+Function         Bfn.  Coefficient  Atom+Function  
  ----- ------------  ---------------      ----- ------------  ---------------
    59      0.235483  2 C  s                 60     -0.207652  2 C  s          
   232     -0.197329  5 Cl pz               291     -0.163937  6 Cl pz         
   350     -0.159521  7 Cl pz               235     -0.152858  5 Cl pz         
   231      0.139570  5 Cl py               353     -0.136396  7 Cl pz         
     4     -0.128750  1 C  s                294     -0.126874  6 Cl pz         

 Vector   36  Occ=2.000000D+00  E=-3.147466D-01
              MO Center= -3.8D-02, -4.9D-02,  5.1D-01, r^2= 4.4D+00
   Bfn.  Coefficient  Atom+Function         Bfn.  Coefficient  Atom+Function  
  ----- ------------  ---------------      ----- ------------  ---------------
   119      0.244586  3 O  px               116      0.240666  3 O  px         
   174     -0.185879  4 O  px               171     -0.184142  4 O  px         
   348      0.176420  7 Cl px               122      0.148593  3 O  px         
   351      0.137600  7 Cl px               177     -0.110019  4 O  px         
    86     -0.108274  2 C  dxy              290      0.105754  6 Cl py         

 Vector   37  Occ=2.000000D+00  E=-2.965444D-01
              MO Center= -2.6D-01,  5.6D-01,  2.0D+00, r^2= 3.8D+00
   Bfn.  Coefficient  Atom+Function         Bfn.  Coefficient  Atom+Function  
  ----- ------------  ---------------      ----- ------------  ---------------
   291      0.246440  6 Cl pz               232     -0.198507  5 Cl pz         
   230      0.197046  5 Cl px               294      0.183418  6 Cl pz         
   233      0.165484  5 Cl px               297      0.143835  6 Cl pz         
   235     -0.142836  5 Cl pz               289      0.134326  6 Cl px         
   292      0.125250  6 Cl px               348      0.119330  7 Cl px         

 Vector   38  Occ=2.000000D+00  E=-2.951421D-01
              MO Center=  1.5D-01, -9.4D-01,  2.0D+00, r^2= 3.3D+00
   Bfn.  Coefficient  Atom+Function         Bfn.  Coefficient  Atom+Function  
  ----- ------------  ---------------      ----- ------------  ---------------
   350      0.304862  7 Cl pz               353      0.228769  7 Cl pz         
   356      0.163424  7 Cl pz                59     -0.155283  2 C  s          
   349      0.148798  7 Cl py               290      0.135564  6 Cl py         
   231      0.132556  5 Cl py               352      0.128817  7 Cl py         
    60      0.127290  2 C  s                234      0.115966  5 Cl py         

 Vector   39  Occ=2.000000D+00  E=-2.793221D-01
              MO Center= -6.9D-02, -1.3D-01,  2.1D+00, r^2= 4.1D+00
   Bfn.  Coefficient  Atom+Function         Bfn.  Coefficient  Atom+Function  
  ----- ------------  ---------------      ----- ------------  ---------------
   348     -0.265448  7 Cl px               290      0.242052  6 Cl py         
   351     -0.202368  7 Cl px               231     -0.188298  5 Cl py         
   293      0.182881  6 Cl py               354     -0.159929  7 Cl px         
   230      0.157914  5 Cl px               296      0.157646  6 Cl py         
   234     -0.143875  5 Cl py               237     -0.124639  5 Cl py         

 Vector   40  Occ=2.000000D+00  E=-2.673912D-01
              MO Center=  1.8D-01, -3.8D-01,  3.1D-01, r^2= 3.9D+00
   Bfn.  Coefficient  Atom+Function         Bfn.  Coefficient  Atom+Function  
  ----- ------------  ---------------      ----- ------------  ---------------
   173      0.257771  4 O  pz               176      0.259037  4 O  pz         
   179      0.178808  4 O  pz               175     -0.158360  4 O  py         
   232     -0.157852  5 Cl pz               172     -0.153378  4 O  py         
    59     -0.151439  2 C  s                291     -0.141554  6 Cl pz         
   120     -0.134074  3 O  py               117     -0.127983  3 O  py         

 Vector   41  Occ=0.000000D+00  E=-1.004683D-01
              MO Center= -2.4D-02,  6.2D-04,  6.6D-01, r^2= 3.7D+00
   Bfn.  Coefficient  Atom+Function         Bfn.  Coefficient  Atom+Function  
  ----- ------------  ---------------      ----- ------------  ---------------
     9      0.263232  1 C  px                 6      0.244391  1 C  px         
    87     -0.229968  2 C  dxz              174     -0.202668  4 O  px         
   171     -0.193794  4 O  px               177     -0.180463  4 O  px         
    61      0.165720  2 C  px                64      0.165402  2 C  px         
    12      0.146765  1 C  px               122     -0.126269  3 O  px         

 Vector   42  Occ=0.000000D+00  E=-8.669147D-02
              MO Center= -7.9D-02,  1.9D-01,  2.0D+00, r^2= 4.5D+00
   Bfn.  Coefficient  Atom+Function         Bfn.  Coefficient  Atom+Function  
  ----- ------------  ---------------      ----- ------------  ---------------
    59      2.216632  2 C  s                 60     -1.206592  2 C  s          
     4     -1.109952  1 C  s                 14     -0.531526  1 C  pz         
     5      0.473256  1 C  s                 69     -0.356192  2 C  pz         
    57      0.348393  2 C  s                295     -0.323081  6 Cl px         
    90      0.309064  2 C  dzz              284     -0.264385  6 Cl s          

 Vector   43  Occ=0.000000D+00  E=-4.977908D-02
              MO Center=  1.1D-01, -3.6D-01,  1.5D+00, r^2= 6.3D+00
   Bfn.  Coefficient  Atom+Function         Bfn.  Coefficient  Atom+Function  
  ----- ------------  ---------------      ----- ------------  ---------------
     5      0.460848  1 C  s                115     -0.353934  3 O  s          
    65     -0.318379  2 C  py                59      0.310872  2 C  s          
    62     -0.284228  2 C  py               170     -0.274420  4 O  s          
   401     -0.247362  8 H  s                 60     -0.226148  2 C  s          
   358     -0.222651  7 Cl py                14     -0.218736  1 C  pz         

 Vector   44  Occ=0.000000D+00  E=-3.431147D-02
              MO Center=  6.8D-02,  6.8D-01, -1.0D+00, r^2= 9.8D+00
   Bfn.  Coefficient  Atom+Function         Bfn.  Coefficient  Atom+Function  
  ----- ------------  ---------------      ----- ------------  ---------------
   401      0.968635  8 H  s                115      0.781044  3 O  s          
    60      0.637346  2 C  s                  4     -0.548271  1 C  s          
   285     -0.436696  6 Cl s                226     -0.412645  5 Cl s          
    16     -0.404921  1 C  py               344     -0.404619  7 Cl s          
    72      0.380077  2 C  pz                71      0.321720  2 C  py         

 Vector   45  Occ=0.000000D+00  E=-1.414080D-02
              MO Center= -1.2D-01,  3.4D-01,  1.3D+00, r^2= 5.8D+00
   Bfn.  Coefficient  Atom+Function         Bfn.  Coefficient  Atom+Function  
  ----- ------------  ---------------      ----- ------------  ---------------
   285     -0.597099  6 Cl s                226      0.551115  5 Cl s          
    86      0.487606  2 C  dxy               87     -0.458687  2 C  dxz        
   298     -0.377567  6 Cl px                64     -0.346201  2 C  px         
   240     -0.336502  5 Cl py                61     -0.267410  2 C  px         
     9      0.234026  1 C  px                67      0.227880  2 C  px         

 Vector   46  Occ=0.000000D+00  E= 1.207266D-03
              MO Center= -1.7D-01,  2.3D-01,  2.3D+00, r^2= 1.6D+01
   Bfn.  Coefficient  Atom+Function         Bfn.  Coefficient  Atom+Function  
  ----- ------------  ---------------      ----- ------------  ---------------
    60      7.177513  2 C  s                285     -3.148728  6 Cl s          
   226     -3.115164  5 Cl s                  5      2.877410  1 C  s          
   344     -2.529315  7 Cl s                  4      1.888816  1 C  s          
    59     -1.633453  2 C  s                170     -1.628440  4 O  s          
   115     -1.306318  3 O  s                 72      1.047790  2 C  pz         

 Vector   47  Occ=0.000000D+00  E= 1.988699D-02
              MO Center= -3.3D-02,  2.5D-01,  1.0D+00, r^2= 1.8D+01
   Bfn.  Coefficient  Atom+Function         Bfn.  Coefficient  Atom+Function  
  ----- ------------  ---------------      ----- ------------  ---------------
   285      2.358864  6 Cl s                226     -1.883491  5 Cl s          
    15      1.266846  1 C  px               298      0.877524  6 Cl px         
    87      0.774341  2 C  dxz                5     -0.617215  1 C  s          
   239      0.619762  5 Cl px                60      0.462474  2 C  s          
   240      0.442845  5 Cl py               295      0.432279  6 Cl px         

 Vector   48  Occ=0.000000D+00  E= 2.285156D-02
              MO Center= -4.3D-03,  2.0D-01,  8.8D-01, r^2= 2.0D+01
   Bfn.  Coefficient  Atom+Function         Bfn.  Coefficient  Atom+Function  
  ----- ------------  ---------------      ----- ------------  ---------------
    60     10.976295  2 C  s                  5     -6.925059  1 C  s          
    59     -4.350408  2 C  s                344     -3.962676  7 Cl s          
    17     -3.800209  1 C  pz                 4      2.679731  1 C  s          
    71     -1.598698  2 C  py                35      1.393425  1 C  dzz        
    14      1.347777  1 C  pz               401     -1.271026  8 H  s          

 Vector   49  Occ=0.000000D+00  E= 3.554514D-02
              MO Center=  1.9D-01, -7.4D-01,  1.6D+00, r^2= 1.7D+01
   Bfn.  Coefficient  Atom+Function         Bfn.  Coefficient  Atom+Function  
  ----- ------------  ---------------      ----- ------------  ---------------
    60      7.541649  2 C  s                 59     -4.060722  2 C  s          
     5     -2.948455  1 C  s                 71      2.794358  2 C  py         
   344      2.473514  7 Cl s                170     -2.234445  4 O  s          
   285     -1.752692  6 Cl s                226     -1.706506  5 Cl s          
    34      1.686190  1 C  dyz               17     -1.513439  1 C  pz         

 Vector   50  Occ=0.000000D+00  E= 4.728119D-02
              MO Center=  9.8D-02,  2.4D-01,  1.1D+00, r^2= 2.0D+01
   Bfn.  Coefficient  Atom+Function         Bfn.  Coefficient  Atom+Function  
  ----- ------------  ---------------      ----- ------------  ---------------
    70      3.860260  2 C  px                60      3.593283  2 C  s          
   226     -3.499951  5 Cl s                 15     -2.826994  1 C  px         
   285      2.410665  6 Cl s                 87     -1.702985  2 C  dxz        
    17     -1.450098  1 C  pz                 5     -1.365595  1 C  s          
    59     -1.044881  2 C  s                  4      1.009536  1 C  s          

 Vector   51  Occ=0.000000D+00  E= 4.866066D-02
              MO Center= -1.8D-01,  1.2D+00, -1.1D+00, r^2= 2.1D+01
   Bfn.  Coefficient  Atom+Function         Bfn.  Coefficient  Atom+Function  
  ----- ------------  ---------------      ----- ------------  ---------------
     5      4.737462  1 C  s                  4      4.480364  1 C  s          
    17     -3.917171  1 C  pz               401     -3.837030  8 H  s          
   115     -3.428257  3 O  s                 60      2.984793  2 C  s          
    16      2.639870  1 C  py               170     -2.527171  4 O  s          
    69      1.610373  2 C  pz                72      1.576246  2 C  pz         

 Vector   52  Occ=0.000000D+00  E= 5.107174D-02
              MO Center=  8.3D-02,  1.9D-01, -2.4D-01, r^2= 1.9D+01
   Bfn.  Coefficient  Atom+Function         Bfn.  Coefficient  Atom+Function  
  ----- ------------  ---------------      ----- ------------  ---------------
     5      8.075134  1 C  s                 60     -6.200464  2 C  s          
   115     -5.381520  3 O  s                 71     -3.213610  2 C  py         
    16      3.093702  1 C  py               285      2.021766  6 Cl s          
    68     -1.925805  2 C  py               344     -1.872795  7 Cl s          
    17      1.728915  1 C  pz               226      1.735606  5 Cl s          

 Vector   53  Occ=0.000000D+00  E= 6.277711D-02
              MO Center= -1.3D-02, -5.9D-02,  1.4D+00, r^2= 1.8D+01
   Bfn.  Coefficient  Atom+Function         Bfn.  Coefficient  Atom+Function  
  ----- ------------  ---------------      ----- ------------  ---------------
    60     17.389610  2 C  s                  5     -9.200814  1 C  s          
    59     -5.813873  2 C  s                  4      4.165444  1 C  s          
    72     -3.083697  2 C  pz               344     -2.894293  7 Cl s          
    88     -2.660660  2 C  dyy               89     -2.546096  2 C  dyz        
   170     -2.514752  4 O  s                 35      2.219596  1 C  dzz        

 Vector   54  Occ=0.000000D+00  E= 6.527976D-02
              MO Center= -1.8D-01,  4.1D-01,  1.6D+00, r^2= 1.9D+01
   Bfn.  Coefficient  Atom+Function         Bfn.  Coefficient  Atom+Function  
  ----- ------------  ---------------      ----- ------------  ---------------
    60     44.669077  2 C  s                  5    -26.778845  1 C  s          
    59     -9.469674  2 C  s                 72     -8.051474  2 C  pz         
   285     -6.268805  6 Cl s                226     -6.054224  5 Cl s          
    17     -5.893550  1 C  pz               344     -4.590035  7 Cl s          
   170      4.043299  4 O  s                 85     -3.522424  2 C  dxx        

 Vector   55  Occ=0.000000D+00  E= 6.895511D-02
              MO Center= -5.4D-02,  9.9D-04,  1.6D+00, r^2= 1.7D+01
   Bfn.  Coefficient  Atom+Function         Bfn.  Coefficient  Atom+Function  
  ----- ------------  ---------------      ----- ------------  ---------------
    87     -2.017112  2 C  dxz               86      1.977912  2 C  dxy        
    70     -1.919935  2 C  px                67      1.903459  2 C  px         
   226      1.700910  5 Cl s                285     -1.611820  6 Cl s          
   357      1.156765  7 Cl px               225     -1.130240  5 Cl s          
   284      1.129380  6 Cl s                 12     -1.044873  1 C  px         

 Vector   56  Occ=0.000000D+00  E= 8.799822D-02
              MO Center=  2.9D-02, -9.6D-02,  1.2D+00, r^2= 2.0D+01
   Bfn.  Coefficient  Atom+Function         Bfn.  Coefficient  Atom+Function  
  ----- ------------  ---------------      ----- ------------  ---------------
    60      9.154114  2 C  s                115     -7.527570  3 O  s          
    17     -6.189184  1 C  pz                 4      5.479521  1 C  s          
   400      5.141802  8 H  s                 59     -3.533650  2 C  s          
   170     -2.770752  4 O  s                  5     -2.523293  1 C  s          
    71     -2.498913  2 C  py               401     -2.164995  8 H  s          

 Vector   57  Occ=0.000000D+00  E= 9.438019D-02
              MO Center= -1.9D-01,  6.5D-01,  1.6D+00, r^2= 1.8D+01
   Bfn.  Coefficient  Atom+Function         Bfn.  Coefficient  Atom+Function  
  ----- ------------  ---------------      ----- ------------  ---------------
    70      3.599790  2 C  px                15     -2.903004  1 C  px         
   300      1.845695  6 Cl pz               226     -1.825570  5 Cl s          
   241     -1.807396  5 Cl pz                60      1.640989  2 C  s          
    67      1.532752  2 C  px               285      1.181727  6 Cl s          
    87      1.087504  2 C  dxz                5     -0.845781  1 C  s          

 Vector   58  Occ=0.000000D+00  E= 9.786818D-02
              MO Center= -2.8D-02, -2.1D-01,  1.6D+00, r^2= 1.6D+01
   Bfn.  Coefficient  Atom+Function         Bfn.  Coefficient  Atom+Function  
  ----- ------------  ---------------      ----- ------------  ---------------
    60     14.116240  2 C  s                  5     -8.632323  1 C  s          
     4     -7.019915  1 C  s                344     -5.240428  7 Cl s          
   115      5.049538  3 O  s                285     -4.320560  6 Cl s          
   226     -4.286967  5 Cl s                 59      3.695246  2 C  s          
   170      3.186217  4 O  s                 17     -2.917725  1 C  pz         

 Vector   59  Occ=0.000000D+00  E= 1.026963D-01
              MO Center= -5.3D-02,  1.3D-02,  2.1D+00, r^2= 1.9D+01
   Bfn.  Coefficient  Atom+Function         Bfn.  Coefficient  Atom+Function  
  ----- ------------  ---------------      ----- ------------  ---------------
   299      1.796127  6 Cl py               357     -1.675312  7 Cl px         
   239      1.483684  5 Cl px               240     -1.275581  5 Cl py         
    70     -0.714543  2 C  px               298      0.700596  6 Cl px         
   296     -0.513237  6 Cl py               170     -0.508112  4 O  s          
   236     -0.479531  5 Cl px                 5      0.459139  1 C  s          

 Vector   60  Occ=0.000000D+00  E= 1.061526D-01
              MO Center=  2.5D-02, -4.0D-02,  6.6D-01, r^2= 2.0D+01
   Bfn.  Coefficient  Atom+Function         Bfn.  Coefficient  Atom+Function  
  ----- ------------  ---------------      ----- ------------  ---------------
     4      9.014702  1 C  s                170     -8.743013  4 O  s          
   115     -8.183532  3 O  s                  5      6.278890  1 C  s          
    68     -4.448649  2 C  py                60     -4.308869  2 C  s          
   400      4.060472  8 H  s                 35      3.823286  1 C  dzz        
    33      3.685016  1 C  dyy               30      3.352878  1 C  dxx        

 Vector   61  Occ=0.000000D+00  E= 1.113361D-01
              MO Center= -7.6D-02,  3.6D-01,  1.3D+00, r^2= 1.5D+01
   Bfn.  Coefficient  Atom+Function         Bfn.  Coefficient  Atom+Function  
  ----- ------------  ---------------      ----- ------------  ---------------
     5     14.392466  1 C  s                 60     -7.353607  2 C  s          
   115     -7.031839  3 O  s                170     -6.142232  4 O  s          
    59      5.687712  2 C  s                 16      3.425388  1 C  py         
    14     -3.022633  1 C  pz                72     -3.017432  2 C  pz         
    69     -2.961610  2 C  pz               400      2.808673  8 H  s          

 Vector   62  Occ=0.000000D+00  E= 1.132493D-01
              MO Center= -3.5D-02, -6.2D-02,  1.1D+00, r^2= 1.7D+01
   Bfn.  Coefficient  Atom+Function         Bfn.  Coefficient  Atom+Function  
  ----- ------------  ---------------      ----- ------------  ---------------
    70      7.155618  2 C  px               226     -3.873984  5 Cl s          
   285      3.812999  6 Cl s                 86     -2.678294  2 C  dxy        
   357     -2.281816  7 Cl px               225      2.262084  5 Cl s          
    67     -2.229465  2 C  px                31      1.827275  1 C  dxy        
   125     -1.801433  3 O  px               284     -1.594748  6 Cl s          

 Vector   63  Occ=0.000000D+00  E= 1.236983D-01
              MO Center=  4.3D-02,  2.4D-01,  1.6D+00, r^2= 1.7D+01
   Bfn.  Coefficient  Atom+Function         Bfn.  Coefficient  Atom+Function  
  ----- ------------  ---------------      ----- ------------  ---------------
    70      7.350856  2 C  px                67      4.273771  2 C  px         
    71      4.278765  2 C  py                86      3.133039  2 C  dxy        
   225     -3.056037  5 Cl s                 15     -2.895823  1 C  px         
   284      2.712616  6 Cl s                357     -2.123504  7 Cl px         
   298     -2.067887  6 Cl px               239     -1.832648  5 Cl px         

 Vector   64  Occ=0.000000D+00  E= 1.246848D-01
              MO Center= -2.6D-01, -9.1D-02,  1.9D+00, r^2= 1.7D+01
   Bfn.  Coefficient  Atom+Function         Bfn.  Coefficient  Atom+Function  
  ----- ------------  ---------------      ----- ------------  ---------------
    71      8.076551  2 C  py               115     -3.586536  3 O  s          
    70     -3.073397  2 C  px                17     -3.017974  1 C  pz         
    60      2.839980  2 C  s                358     -2.553889  7 Cl py         
   299     -2.530224  6 Cl py                68      2.456159  2 C  py         
   343      2.331957  7 Cl s                 72      2.248602  2 C  pz         

 Vector   65  Occ=0.000000D+00  E= 1.315171D-01
              MO Center=  2.3D-01, -5.1D-01,  9.1D-01, r^2= 1.7D+01
   Bfn.  Coefficient  Atom+Function         Bfn.  Coefficient  Atom+Function  
  ----- ------------  ---------------      ----- ------------  ---------------
    60    -15.836160  2 C  s                  5     15.214383  1 C  s          
    71    -10.219716  2 C  py                72      9.095526  2 C  pz         
    16      7.740214  1 C  py               400      6.349102  8 H  s          
   115     -5.028821  3 O  s                  4     -4.466472  1 C  s          
   127      3.755756  3 O  pz               359     -3.702488  7 Cl pz         

 Vector   66  Occ=0.000000D+00  E= 1.345324D-01
              MO Center=  7.9D-02, -6.9D-03,  1.1D+00, r^2= 1.8D+01
   Bfn.  Coefficient  Atom+Function         Bfn.  Coefficient  Atom+Function  
  ----- ------------  ---------------      ----- ------------  ---------------
    60     37.302815  2 C  s                  5    -29.503835  1 C  s          
    59    -12.339194  2 C  s                 72    -12.268871  2 C  pz         
    17     -9.034945  1 C  pz                71     -7.323883  2 C  py         
    16      6.919300  1 C  py                 4      4.399787  1 C  s          
   115     -4.418708  3 O  s                400      4.398901  8 H  s          

 Vector   67  Occ=0.000000D+00  E= 1.596319D-01
              MO Center= -2.5D-01,  1.2D+00,  9.1D-02, r^2= 1.8D+01
   Bfn.  Coefficient  Atom+Function         Bfn.  Coefficient  Atom+Function  
  ----- ------------  ---------------      ----- ------------  ---------------
    60     28.711881  2 C  s                  5    -23.708824  1 C  s          
     4     10.823688  1 C  s                 17     -9.676385  1 C  pz         
    59     -9.644179  2 C  s                400     -5.913767  8 H  s          
    35      5.225298  1 C  dzz              170     -4.534246  4 O  s          
   285      4.266276  6 Cl s                344     -4.007094  7 Cl s          

 Vector   68  Occ=0.000000D+00  E= 1.693174D-01
              MO Center=  4.7D-01,  4.7D-02,  9.1D-01, r^2= 1.7D+01
   Bfn.  Coefficient  Atom+Function         Bfn.  Coefficient  Atom+Function  
  ----- ------------  ---------------      ----- ------------  ---------------
   115     10.266615  3 O  s                226      9.449344  5 Cl s          
     5     -8.094022  1 C  s                344      6.445991  7 Cl s          
    60     -6.297135  2 C  s                  4     -5.907726  1 C  s          
    70     -5.508364  2 C  px                72     -4.790438  2 C  pz         
   285     -4.513202  6 Cl s                225     -4.335842  5 Cl s          

 Vector   69  Occ=0.000000D+00  E= 1.709486D-01
              MO Center= -3.7D-01, -1.9D-01,  8.1D-01, r^2= 1.7D+01
   Bfn.  Coefficient  Atom+Function         Bfn.  Coefficient  Atom+Function  
  ----- ------------  ---------------      ----- ------------  ---------------
   115     10.234432  3 O  s                 60     -9.222217  2 C  s          
   285      9.049631  6 Cl s                344      8.328263  7 Cl s          
    71      7.020153  2 C  py                 5     -6.848292  1 C  s          
     4     -5.932423  1 C  s                226     -4.782372  5 Cl s          
    72     -4.406191  2 C  pz                70      4.141994  2 C  px         

 Vector   70  Occ=0.000000D+00  E= 1.752479D-01
              MO Center=  4.6D-01, -5.7D-01, -2.5D-03, r^2= 1.6D+01
   Bfn.  Coefficient  Atom+Function         Bfn.  Coefficient  Atom+Function  
  ----- ------------  ---------------      ----- ------------  ---------------
    60     24.368724  2 C  s                  5    -11.794804  1 C  s          
    59    -10.577781  2 C  s                344     -9.456586  7 Cl s          
    17     -6.632463  1 C  pz               115      4.797440  3 O  s          
   226     -4.382561  5 Cl s                170      4.117471  4 O  s          
    16     -3.836098  1 C  py               343      3.570486  7 Cl s          

 Vector   71  Occ=0.000000D+00  E= 1.836542D-01
              MO Center=  4.5D-02, -4.0D-01, -9.1D-02, r^2= 1.7D+01
   Bfn.  Coefficient  Atom+Function         Bfn.  Coefficient  Atom+Function  
  ----- ------------  ---------------      ----- ------------  ---------------
    60      6.373044  2 C  s                285     -6.305047  6 Cl s          
    70     -4.662800  2 C  px               226      3.438568  5 Cl s          
    15     -3.316568  1 C  px                 5     -3.137915  1 C  s          
   180      3.028424  4 O  px                16     -1.822012  1 C  py         
    67     -1.826464  2 C  px                17     -1.677936  1 C  pz         

 Vector   72  Occ=0.000000D+00  E= 1.869764D-01
              MO Center=  1.3D-01,  4.6D-02,  1.3D+00, r^2= 2.0D+01
   Bfn.  Coefficient  Atom+Function         Bfn.  Coefficient  Atom+Function  
  ----- ------------  ---------------      ----- ------------  ---------------
    60     37.456185  2 C  s                  5    -16.659126  1 C  s          
   226    -13.481370  5 Cl s                 71     12.930846  2 C  py         
   285    -11.582730  6 Cl s                344      8.587338  7 Cl s          
    59     -7.207145  2 C  s                 72     -6.502427  2 C  pz         
    17     -6.027833  1 C  pz                68     -5.561637  2 C  py         

 Vector   73  Occ=0.000000D+00  E= 1.977424D-01
              MO Center=  7.1D-02, -8.0D-02,  1.3D+00, r^2= 1.4D+01
   Bfn.  Coefficient  Atom+Function         Bfn.  Coefficient  Atom+Function  
  ----- ------------  ---------------      ----- ------------  ---------------
    60     18.833639  2 C  s                 72    -14.408967  2 C  pz         
    71     -8.390025  2 C  py                59     -7.791238  2 C  s          
    69     -7.314752  2 C  pz               170     -7.255563  4 O  s          
   344     -6.909628  7 Cl s                115     -5.587378  3 O  s          
     5     -4.988167  1 C  s                 16      4.120592  1 C  py         

 Vector   74  Occ=0.000000D+00  E= 1.993137D-01
              MO Center= -3.0D-01, -6.2D-02,  9.0D-01, r^2= 1.5D+01
   Bfn.  Coefficient  Atom+Function         Bfn.  Coefficient  Atom+Function  
  ----- ------------  ---------------      ----- ------------  ---------------
     4     16.029519  1 C  s                 60     15.623926  2 C  s          
   170    -13.072634  4 O  s                285    -11.389728  6 Cl s          
    59     -9.228106  2 C  s                 34      5.307320  1 C  dyz        
   181     -4.729844  4 O  py                69      4.488702  2 C  pz         
    71      4.423387  2 C  py               226     -4.301127  5 Cl s          

 Vector   75  Occ=0.000000D+00  E= 2.031293D-01
              MO Center=  9.9D-02,  1.8D-01,  1.1D+00, r^2= 1.1D+01
   Bfn.  Coefficient  Atom+Function         Bfn.  Coefficient  Atom+Function  
  ----- ------------  ---------------      ----- ------------  ---------------
    60     12.825530  2 C  s                  4      7.006204  1 C  s          
   170     -6.387025  4 O  s                344     -5.931826  7 Cl s          
    59     -5.593888  2 C  s                 71     -5.124507  2 C  py         
    72     -4.535881  2 C  pz                16      4.144566  1 C  py         
   226     -3.728076  5 Cl s                115     -3.380817  3 O  s          

 Vector   76  Occ=0.000000D+00  E= 2.101516D-01
              MO Center= -2.6D-01, -1.3D-01,  1.4D+00, r^2= 1.3D+01
   Bfn.  Coefficient  Atom+Function         Bfn.  Coefficient  Atom+Function  
  ----- ------------  ---------------      ----- ------------  ---------------
    60     10.678403  2 C  s                344     -9.178807  7 Cl s          
    71     -8.559202  2 C  py                69      7.158656  2 C  pz         
    17     -6.955530  1 C  pz                 4      6.705382  1 C  s          
    14      5.988024  1 C  pz                16      5.628472  1 C  py         
   170      3.813776  4 O  s                182      3.239823  4 O  pz         

 Vector   77  Occ=0.000000D+00  E= 2.125898D-01
              MO Center= -3.9D-02,  1.2D-01,  1.1D+00, r^2= 1.4D+01
   Bfn.  Coefficient  Atom+Function         Bfn.  Coefficient  Atom+Function  
  ----- ------------  ---------------      ----- ------------  ---------------
    70     -9.751329  2 C  px               285     -9.617943  6 Cl s          
    60      9.310133  2 C  s                  5     -8.226251  1 C  s          
   226      7.721151  5 Cl s                 67     -7.279727  2 C  px         
   170      4.837065  4 O  s                 15      4.503863  1 C  px         
    87     -3.927760  2 C  dxz              295     -3.875097  6 Cl px         

 Vector   78  Occ=0.000000D+00  E= 2.248387D-01
              MO Center=  3.1D-01, -1.3D-01,  1.4D+00, r^2= 1.7D+01
   Bfn.  Coefficient  Atom+Function         Bfn.  Coefficient  Atom+Function  
  ----- ------------  ---------------      ----- ------------  ---------------
    60     90.626589  2 C  s                  5    -52.325264  1 C  s          
    59    -18.678763  2 C  s                226    -18.187026  5 Cl s          
   344    -16.979740  7 Cl s                285    -13.714744  6 Cl s          
   115     12.441445  3 O  s                 72    -11.672500  2 C  pz         
    85     -7.049075  2 C  dxx               70      6.769752  2 C  px         

 Vector   79  Occ=0.000000D+00  E= 2.316447D-01
              MO Center=  1.1D-01,  1.2D-01,  7.5D-01, r^2= 1.4D+01
   Bfn.  Coefficient  Atom+Function         Bfn.  Coefficient  Atom+Function  
  ----- ------------  ---------------      ----- ------------  ---------------
    60     38.404864  2 C  s                  5    -21.064627  1 C  s          
    70     -8.804725  2 C  px               285     -8.595549  6 Cl s          
    59     -8.486361  2 C  s                344     -6.804906  7 Cl s          
    67     -6.214727  2 C  px                72     -6.239237  2 C  pz         
   226     -5.432964  5 Cl s                 86     -4.916918  2 C  dxy        

 Vector   80  Occ=0.000000D+00  E= 2.367314D-01
              MO Center=  9.9D-02, -4.5D-01,  1.9D+00, r^2= 1.4D+01
   Bfn.  Coefficient  Atom+Function         Bfn.  Coefficient  Atom+Function  
  ----- ------------  ---------------      ----- ------------  ---------------
    60     18.705125  2 C  s                  5    -10.067250  1 C  s          
    71      8.575862  2 C  py               170      5.343756  4 O  s          
    68      4.724550  2 C  py                72     -4.576347  2 C  pz         
   344     -4.339417  7 Cl s                115     -3.412838  3 O  s          
   358     -2.989133  7 Cl py               285     -2.881380  6 Cl s          

 Vector   81  Occ=0.000000D+00  E= 2.504407D-01
              MO Center=  1.9D-01,  3.7D-01,  4.7D-02, r^2= 1.4D+01
   Bfn.  Coefficient  Atom+Function         Bfn.  Coefficient  Atom+Function  
  ----- ------------  ---------------      ----- ------------  ---------------
   400     17.338706  8 H  s                115    -15.503843  3 O  s          
   170    -12.508038  4 O  s                 60     11.231764  2 C  s          
     4      8.349928  1 C  s                 17     -7.895039  1 C  pz         
    34      7.659828  1 C  dyz              127      6.731706  3 O  pz         
   343      6.479416  7 Cl s                 89      6.320343  2 C  dyz        

 Vector   82  Occ=0.000000D+00  E= 2.571374D-01
              MO Center= -9.5D-02,  3.3D-01,  1.0D+00, r^2= 1.3D+01
   Bfn.  Coefficient  Atom+Function         Bfn.  Coefficient  Atom+Function  
  ----- ------------  ---------------      ----- ------------  ---------------
   115     18.224956  3 O  s                400    -15.988654  8 H  s          
    71      9.565431  2 C  py                68      8.459783  2 C  py         
    34     -7.356722  1 C  dyz               16     -6.975098  1 C  py         
     5     -4.714836  1 C  s                 13     -4.181984  1 C  py         
   410     -3.867974  8 H  pz                86      3.365196  2 C  dxy        

 Vector   83  Occ=0.000000D+00  E= 2.579412D-01
              MO Center= -3.1D-01,  2.1D-01,  1.6D+00, r^2= 1.1D+01
   Bfn.  Coefficient  Atom+Function         Bfn.  Coefficient  Atom+Function  
  ----- ------------  ---------------      ----- ------------  ---------------
    60     13.397777  2 C  s                 87      7.074506  2 C  dxz        
     5     -5.584286  1 C  s                 70      5.220830  2 C  px         
   400      5.197119  8 H  s                115     -5.166656  3 O  s          
   284      3.906406  6 Cl s                 67      3.588886  2 C  px         
   225     -3.488441  5 Cl s                 34      3.313350  1 C  dyz        

 Vector   84  Occ=0.000000D+00  E= 2.787538D-01
              MO Center=  1.2D-02,  2.5D-01,  1.7D-01, r^2= 1.2D+01
   Bfn.  Coefficient  Atom+Function         Bfn.  Coefficient  Atom+Function  
  ----- ------------  ---------------      ----- ------------  ---------------
    59     13.818123  2 C  s                 14     -6.310354  1 C  pz         
     4     -5.028580  1 C  s                  5      4.938854  1 C  s          
   115     -4.590603  3 O  s                 72      4.153306  2 C  pz         
    85      4.106891  2 C  dxx              400     -3.890444  8 H  s          
    34     -3.478859  1 C  dyz               60     -3.177750  2 C  s          

 Vector   85  Occ=0.000000D+00  E= 2.821365D-01
              MO Center= -4.1D-01,  3.5D-01,  2.1D+00, r^2= 1.0D+01
   Bfn.  Coefficient  Atom+Function         Bfn.  Coefficient  Atom+Function  
  ----- ------------  ---------------      ----- ------------  ---------------
    60      8.863340  2 C  s                 59     -7.392878  2 C  s          
     4      6.765352  1 C  s                115     -5.020663  3 O  s          
    87     -3.988375  2 C  dxz               86      3.787656  2 C  dxy        
   170     -3.453262  4 O  s                  5     -3.357835  1 C  s          
   400      2.942234  8 H  s                285     -2.920625  6 Cl s          

 Vector   86  Occ=0.000000D+00  E= 2.848475D-01
              MO Center=  2.2D-01,  1.5D-01,  1.0D+00, r^2= 1.2D+01
   Bfn.  Coefficient  Atom+Function         Bfn.  Coefficient  Atom+Function  
  ----- ------------  ---------------      ----- ------------  ---------------
    60     25.867112  2 C  s                  4     22.718042  1 C  s          
    59    -20.910616  2 C  s                  5    -13.061636  1 C  s          
   115    -12.364188  3 O  s                170    -11.390158  4 O  s          
    14      8.942539  1 C  pz                35      8.776863  1 C  dzz        
    69      8.790975  2 C  pz                68     -7.229799  2 C  py         

 Vector   87  Occ=0.000000D+00  E= 2.888882D-01
              MO Center= -1.8D-01,  5.5D-01,  6.3D-01, r^2= 1.3D+01
   Bfn.  Coefficient  Atom+Function         Bfn.  Coefficient  Atom+Function  
  ----- ------------  ---------------      ----- ------------  ---------------
    59     19.427670  2 C  s                  4    -12.610438  1 C  s          
    60    -10.900277  2 C  s                 88      8.308767  2 C  dyy        
   343     -6.382789  7 Cl s                 90      5.455280  2 C  dzz        
    68     -5.181466  2 C  py                34      4.483551  1 C  dyz        
    72      4.100886  2 C  pz                16     -4.057547  1 C  py         

 Vector   88  Occ=0.000000D+00  E= 3.011811D-01
              MO Center=  7.0D-02, -9.5D-02,  8.5D-01, r^2= 1.4D+01
   Bfn.  Coefficient  Atom+Function         Bfn.  Coefficient  Atom+Function  
[...]
    60      6.367150  2 C  s                137     -5.777922  3 O  dyy        
   134     -5.380235  3 O  dxx              139     -4.956241  3 O  dzz        
   111      4.747973  3 O  s                128     -4.109806  3 O  dxx        

 Vector  419  Occ=0.000000D+00  E= 1.971876D+01
              MO Center=  5.5D-02,  3.8D-01, -2.6D-01, r^2= 3.9D+00
   Bfn.  Coefficient  Atom+Function         Bfn.  Coefficient  Atom+Function  
  ----- ------------  ---------------      ----- ------------  ---------------
     4     48.270921  1 C  s                169    -23.068212  4 O  s          
    33     19.061396  1 C  dyy               54    -16.362052  1 C  fyzz       
   170    -15.530001  4 O  s                 53    -13.613864  1 C  fyyz       
   178    -12.972993  4 O  py               115    -12.896624  3 O  s          
    60    -11.953064  2 C  s                 10    -11.427381  1 C  py         

 Vector  420  Occ=0.000000D+00  E= 2.032475D+01
              MO Center=  2.1D-01, -3.6D-01, -1.0D-01, r^2= 4.4D+00
   Bfn.  Coefficient  Atom+Function         Bfn.  Coefficient  Atom+Function  
  ----- ------------  ---------------      ----- ------------  ---------------
    59     69.975059  2 C  s                 60    -35.975345  2 C  s          
    13     31.336354  1 C  py                 4    -15.812072  1 C  s          
   295    -15.501532  6 Cl px               355    -14.837006  7 Cl py         
    88     13.682641  2 C  dyy              349    -13.525651  7 Cl py         
    85     13.223128  2 C  dxx              344     12.412736  7 Cl s          

 Vector  421  Occ=0.000000D+00  E= 2.724702D+01
              MO Center= -1.2D-02, -2.7D-02,  1.3D+00, r^2= 2.2D+00
   Bfn.  Coefficient  Atom+Function         Bfn.  Coefficient  Atom+Function  
  ----- ------------  ---------------      ----- ------------  ---------------
    59     92.425890  2 C  s                  4    -37.499253  1 C  s          
    57    -29.848334  2 C  s                 69    -23.124909  2 C  pz         
    14    -22.202763  1 C  pz                56    -14.651901  2 C  s          
   169     10.892328  4 O  s                400     10.228338  8 H  s          
    34      9.600489  1 C  dyz              115     -8.683838  3 O  s          

 Vector  422  Occ=0.000000D+00  E= 2.969022D+01
              MO Center=  1.3D-01, -1.0D-01,  1.0D-01, r^2= 1.5D+00
   Bfn.  Coefficient  Atom+Function         Bfn.  Coefficient  Atom+Function  
  ----- ------------  ---------------      ----- ------------  ---------------
   169    -39.620868  4 O  s                 59     36.667809  2 C  s          
     2     31.077840  1 C  s                  4    -19.082336  1 C  s          
    53    -18.608797  1 C  fyyz             178    -15.757198  4 O  py         
     1     15.320873  1 C  s                170     13.370519  4 O  s          
    33    -13.263487  1 C  dyy               10    -12.771032  1 C  py         


 center of mass
 --------------
 x =  -0.04046863 y =  -0.00692172 z =   2.62294012

 moments of inertia (a.u.)
 ------------------
        1437.231654287553          27.838101322412          15.482948587687
          27.838101322412        1315.141850441903          31.080170866100
          15.482948587687          31.080170866100        1220.274420890274

     Multipole analysis of the density
     ---------------------------------

     L   x y z        total         alpha         beta         nuclear
     -   - - -        -----         -----         ----         -------
     0   0 0 0     -0.000000    -40.000000    -40.000000     80.000000

     1   1 0 0     -0.080197      1.453360      1.453360     -2.986917
     1   0 1 0      0.525096      0.042072      0.042072      0.440952
     1   0 0 1     -0.439018   -102.744146   -102.744146    205.049274

     2   2 0 0    -44.099639   -155.670267   -155.670267    267.240895
     2   1 1 0      0.817769      7.377972      7.377972    -13.938174
     2   1 0 1      0.377281      8.258201      8.258201    -16.139121
     2   0 2 0    -45.788782   -188.000675   -188.000675    330.212568
     2   0 1 1     -2.336621      8.494052      8.494052    -19.324726
     2   0 0 2    -43.052318   -481.460698   -481.460698    919.869079

 Line search: 
     step= 1.00 grad=-1.0D-08 hess=-1.1D-08 energy=  -1607.216041 mode=accept  
 new step= 1.00                   predicted energy=  -1607.216041

          --------
          Step   7
          --------


                         Geometry "geometry" -> "geometry"
                         ---------------------------------

 Output coordinates in angstroms (scale by  1.889725989 to convert to a.u.)

  No.       Tag          Charge          X              Y              Z
 ---- ---------------- ---------- -------------- -------------- --------------
    1 C                    6.0000     0.13730510    -0.08400601     0.01853836
    2 C                    6.0000    -0.03077087    -0.04106839     1.56844934
    3 O                    8.0000    -0.09801056     1.13221000    -0.51394555
    4 O                    8.0000     0.43588754    -1.07374977    -0.60104715
    5 Cl                  17.0000     1.13803422     1.14605064     2.23538280
    6 Cl                  17.0000    -1.71072756     0.46550793     1.94495127
    7 Cl                  17.0000     0.28178653    -1.64224647     2.25411068
    8 H                    1.0000     0.02258583     1.03780077    -1.48013439

      Atomic Mass 
      ----------- 

      C                 12.000000
      O                 15.994910
      Cl                34.968850
      H                  1.007825


 Effective nuclear repulsion energy (a.u.)     540.2522362599

            Nuclear Dipole moment (a.u.) 
            ----------------------------
        X                 Y               Z
 ---------------- ---------------- ----------------
    -2.9869173991     0.4409522225   205.0492744034


                                 NWChem DFT Module
                                 -----------------




 Summary of "ao basis" -> "ao basis" (cartesian)
 ------------------------------------------------------------------------------
       Tag                 Description            Shells   Functions and Types
 ---------------- ------------------------------  ------  ---------------------
 C                        aug-cc-pVTZ               14       55   5s4p3d2f
 O                        aug-cc-pVTZ               14       55   5s4p3d2f
 Cl                       aug-cc-pVTZ               16       59   6s5p3d2f
 H                        aug-cc-pVTZ                9       25   4s3p2d



  The DFT is already converged 

         Total DFT energy =  -1607.216040671145


            General Information
            -------------------
          SCF calculation type: DFT
          Wavefunction type:  closed shell.
          No. of atoms     :     8
          No. of electrons :    80
           Alpha electrons :    40
            Beta electrons :    40
          Charge           :     0
          Spin multiplicity:     1
          Use of symmetry is: off; symmetry adaption is: off
          Maximum number of iterations: 200
          AO basis - number of functions:   422
                     number of shells:   113
          Convergence on energy requested:  1.00D-06
          Convergence on density requested:  1.00D-05
          Convergence on gradient requested:  5.00D-04

              XC Information
              --------------
          PerdewBurkeErnzerhof Exchange Functional  1.000          
            Perdew 1991 LDA Correlation Functional  1.000 local    
           PerdewBurkeErnz. Correlation Functional  1.000 non-local

             Grid Information
             ----------------
          Grid used for XC integration:  medium    
          Radial quadrature: Mura-Knowles        
          Angular quadrature: Lebedev. 
          Tag              B.-S. Rad. Rad. Pts. Rad. Cut. Ang. Pts.
          ---              ---------- --------- --------- ---------
          C                   0.70       49          14.0       434
          O                   0.60       49          14.0       434
          Cl                  1.00       88          16.0       590
          H                   0.35       45          15.0       434
          Grid pruning is: on 
          Number of quadrature shells:   505
          Spatial weights used:  Erf1

          Convergence Information
          -----------------------
          Convergence aids based upon iterative change in 
          total energy or number of iterations. 
          Levelshifting, if invoked, occurs when the 
          HOMO/LUMO gap drops below (HL_TOL):  1.00D-02
          DIIS, if invoked, will attempt to extrapolate 
          using up to (NFOCK): 10 stored Fock matrices.

                    Damping(40%)  Levelshifting(0.0)       DIIS
                  --------------- ------------------- ---------------
          dE  on:    start            ASAP                start   
          dE off:  200 iters        200 iters           200 iters 


      Screening Tolerance Information
      -------------------------------
          Density screening/tol_rho:  1.00D-10
          AO Gaussian exp screening on grid/accAOfunc:  14
          CD Gaussian exp screening on grid/accCDfunc:  20
          XC Gaussian exp screening on grid/accXCfunc:  20
          Schwarz screening/accCoul:  1.00D-08



                            NWChem DFT Gradient Module
                            --------------------------



  charge          =   0.00
  wavefunction    = closed shell



                         DFT ENERGY GRADIENTS

    atom               coordinates                        gradient
                 x          y          z           x          y          z
   1 C       0.259469  -0.158748   0.035032    0.000002   0.000026   0.000022
   2 C      -0.058149  -0.077608   2.963939    0.000014   0.000006  -0.000008
   3 O      -0.185213   2.139567  -0.971216   -0.000002   0.000010   0.000004
   4 O       0.823708  -2.029093  -1.135814    0.000007  -0.000032  -0.000016
   5 Cl      2.150573   2.165722   4.224261   -0.000004  -0.000007  -0.000007
   6 Cl     -3.232806   0.879682   3.675425   -0.000014  -0.000001   0.000005
   7 Cl      0.532499  -3.103396   4.259652   -0.000002   0.000000   0.000000
   8 H       0.042681   1.961159  -2.797048   -0.000001  -0.000003  -0.000000

                 ----------------------------------------
                 |  Time  |  1-e(secs)   |  2-e(secs)   |
                 ----------------------------------------
                 |  CPU   |       0.01   |      36.84   |
                 ----------------------------------------
                 |  WALL  |       0.01   |      37.04   |
                 ----------------------------------------

  Step       Energy      Delta E   Gmax     Grms     Xrms     Xmax   Walltime
  ---- ---------------- -------- -------- -------- -------- -------- --------
@    7   -1607.21604067 -2.1D-08  0.00003  0.00001  0.00026  0.00077   1163.8
                                     ok       ok       ok       ok  


      ----------------------
      Optimization converged
      ----------------------


  Step       Energy      Delta E   Gmax     Grms     Xrms     Xmax   Walltime
  ---- ---------------- -------- -------- -------- -------- -------- --------
@    7   -1607.21604067 -2.1D-08  0.00003  0.00001  0.00026  0.00077   1163.8
                                     ok       ok       ok       ok  



                         Geometry "geometry" -> "geometry"
                         ---------------------------------

 Output coordinates in angstroms (scale by  1.889725989 to convert to a.u.)

  No.       Tag          Charge          X              Y              Z
 ---- ---------------- ---------- -------------- -------------- --------------
    1 C                    6.0000     0.13730510    -0.08400601     0.01853836
    2 C                    6.0000    -0.03077087    -0.04106839     1.56844934
    3 O                    8.0000    -0.09801056     1.13221000    -0.51394555
    4 O                    8.0000     0.43588754    -1.07374977    -0.60104715
    5 Cl                  17.0000     1.13803422     1.14605064     2.23538280
    6 Cl                  17.0000    -1.71072756     0.46550793     1.94495127
    7 Cl                  17.0000     0.28178653    -1.64224647     2.25411068
    8 H                    1.0000     0.02258583     1.03780077    -1.48013439

      Atomic Mass 
      ----------- 

      C                 12.000000
      O                 15.994910
      Cl                34.968850
      H                  1.007825


 Effective nuclear repulsion energy (a.u.)     540.2522362599

            Nuclear Dipole moment (a.u.) 
            ----------------------------
        X                 Y               Z
 ---------------- ---------------- ----------------
    -2.9869173991     0.4409522225   205.0492744034

 ==============================================================================
                                internuclear distances
 ------------------------------------------------------------------------------
       center one      |      center two      | atomic units |  angstroms
 ------------------------------------------------------------------------------
    2 C                |   1 C                |     2.94720  |     1.55959
    3 O                |   1 C                |     2.54804  |     1.34837
    4 O                |   1 C                |     2.27759  |     1.20525
    5 Cl               |   2 C                |     3.39107  |     1.79448
    6 Cl               |   2 C                |     3.39132  |     1.79461
    7 Cl               |   2 C                |     3.34412  |     1.76963
    8 H                |   3 O                |     1.84863  |     0.97825
 ------------------------------------------------------------------------------
                         number of included internuclear distances:          7
 ==============================================================================



 ==============================================================================
                                 internuclear angles
 ------------------------------------------------------------------------------
        center 1       |       center 2       |       center 3       |  degrees
 ------------------------------------------------------------------------------
    2 C                |   1 C                |   3 O                |   110.42
    2 C                |   1 C                |   4 O                |   124.07
    3 O                |   1 C                |   4 O                |   125.52
    1 C                |   2 C                |   5 Cl               |   108.50
    1 C                |   2 C                |   6 Cl               |   108.49
    1 C                |   2 C                |   7 Cl               |   109.94
    5 Cl               |   2 C                |   6 Cl               |   110.18
    5 Cl               |   2 C                |   7 Cl               |   109.85
    6 Cl               |   2 C                |   7 Cl               |   109.84
    1 C                |   3 O                |   8 H                |   106.35
 ------------------------------------------------------------------------------
                            number of included internuclear angles:         10
 ==============================================================================




 Task  times  cpu:     1126.2s     wall:     1163.6s


                                NWChem Input Module
                                -------------------


 Summary of allocated global arrays
-----------------------------------
  No active global arrays


MA_summarize_allocated_blocks: starting scan ...
MA_summarize_allocated_blocks: scan completed: 0 heap blocks, 0 stack blocks
MA usage statistics:

	allocation statistics:
					      heap	     stack
					      ----	     -----
	current number of blocks	         0	         0
	maximum number of blocks	        24	        53
	current total bytes		         0	         0
	maximum total bytes		 269412264	  91159576
	maximum total K-bytes		    269413	     91160
	maximum total M-bytes		       270	        92


                                     CITATION
                                     --------
                Please cite the following reference when publishing
                           results obtained with NWChem:

          E. Apra, E. J. Bylaska, W. A. de Jong, N. Govind, K. Kowalski,
       T. P. Straatsma, M. Valiev, H. J. J. van Dam, Y. Alexeev, J. Anchell,
       V. Anisimov, F. W. Aquino, R. Atta-Fynn, J. Autschbach, N. P. Bauman,
     J. C. Becca, D. E. Bernholdt, K. Bhaskaran-Nair, S. Bogatko, P. Borowski,
         J. Boschen, J. Brabec, A. Bruner, E. Cauet, Y. Chen, G. N. Chuev,
      C. J. Cramer, J. Daily, M. J. O. Deegan, T. H. Dunning Jr., M. Dupuis,
   K. G. Dyall, G. I. Fann, S. A. Fischer, A. Fonari, H. Fruchtl, L. Gagliardi,
      J. Garza, N. Gawande, S. Ghosh, K. Glaesemann, A. W. Gotz, J. Hammond,
       V. Helms, E. D. Hermes, K. Hirao, S. Hirata, M. Jacquelin, L. Jensen,
   B. G. Johnson, H. Jonsson, R. A. Kendall, M. Klemm, R. Kobayashi, V. Konkov,
      S. Krishnamoorthy, M. Krishnan, Z. Lin, R. D. Lins, R. J. Littlefield,
      A. J. Logsdail, K. Lopata, W. Ma, A. V. Marenich, J. Martin del Campo,
   D. Mejia-Rodriguez, J. E. Moore, J. M. Mullin, T. Nakajima, D. R. Nascimento,
    J. A. Nichols, P. J. Nichols, J. Nieplocha, A. Otero-de-la-Roza, B. Palmer,
    A. Panyala, T. Pirojsirikul, B. Peng, R. Peverati, J. Pittner, L. Pollack,
   R. M. Richard, P. Sadayappan, G. C. Schatz, W. A. Shelton, D. W. Silverstein,
   D. M. A. Smith, T. A. Soares, D. Song, M. Swart, H. L. Taylor, G. S. Thomas,
            V. Tipparaju, D. G. Truhlar, K. Tsemekhman, T. Van Voorhis,
      A. Vazquez-Mayagoitia, P. Verma, O. Villa, A. Vishnu, K. D. Vogiatzis,
        D. Wang, J. H. Weare, M. J. Williamson, T. L. Windus, K. Wolinski,
        A. T. Wong, Q. Wu, C. Yang, Q. Yu, M. Zacharias, Z. Zhang, Y. Zhao,
                                and R. J. Harrison
                        "NWChem: Past, present, and future
                         J. Chem. Phys. 152, 184102 (2020)
                               doi:10.1063/5.0004997

                                      AUTHORS
                                      -------
  E. Apra, E. J. Bylaska, N. Govind, K. Kowalski, M. Valiev, D. Mejia-Rodriguez,
       A. Kunitsa, N. P. Bauman, A. Panyala, W. A. de Jong, T. P. Straatsma,
   H. J. J. van Dam, D. Wang, T. L. Windus, J. Hammond, J. Autschbach, A. Woods,
    K. Bhaskaran-Nair, J. Brabec, K. Lopata, S. A. Fischer, S. Krishnamoorthy,
     M. Jacquelin, W. Ma, M. Klemm, O. Villa, Y. Chen, V. Anisimov, F. Aquino,
     S. Hirata, M. T. Hackler, E. Hermes, L. Jensen, J. E. Moore, J. C. Becca,
      V. Konjkov, T. Risthaus, M. Malagoli, A. Marenich, A. Otero-de-la-Roza,
        J. Mullin, P. Nichols, R. Peverati, J. Pittner, Y. Zhao, P.-D. Fan,
        A. Fonari, M. J. Williamson, R. J. Harrison, J. R. Rehr, M. Dupuis,
     D. Silverstein, D. M. A. Smith, J. Nieplocha, V. Tipparaju, M. Krishnan,
     B. E. Van Kuiken, A. Vazquez-Mayagoitia, M. Swart, Q. Wu, T. Van Voorhis,
     A. A. Auer, M. Nooijen, L. D. Crosby, E. Brown, G. Cisneros, G. I. Fann,
   H. Fruchtl, J. Garza, K. Hirao, R. A. Kendall, J. A. Nichols, K. Tsemekhman,
    K. Wolinski, J. Anchell, D. E. Bernholdt, P. Borowski, T. Clark, D. Clerc,
   H. Dachsel, M. J. O. Deegan, K. Dyall, D. Elwood, E. Glendening, M. Gutowski,
   A. C. Hess, J. Jaffe, B. G. Johnson, J. Ju, R. Kobayashi, R. Kutteh, Z. Lin,
   R. Littlefield, X. Long, B. Meng, T. Nakajima, S. Niu, L. Pollack, M. Rosing,
   K. Glaesemann, G. Sandrone, M. Stave, H. Taylor, G. Thomas, J. H. van Lenthe,
                               A. T. Wong, Z. Zhang.

 Total times  cpu:     1126.2s     wall:     1163.9s
