 argument  1 = m2e/mol.nwi
                                         
                                         


             Northwest Computational Chemistry Package (NWChem) 7.2.2
             --------------------------------------------------------


                    Environmental Molecular Sciences Laboratory
                       Pacific Northwest National Laboratory
                                Richland, WA 99352

                              Copyright (c) 1994-2022
                       Pacific Northwest National Laboratory
                            Battelle Memorial Institute

             NWChem is an open-source computational chemistry package
                        distributed under the terms of the
                      Educational Community License (ECL) 2.0
             A copy of the license is included with this distribution
                              in the LICENSE.TXT file

                                  ACKNOWLEDGMENT
                                  --------------

            This software and its documentation were developed at the
            EMSL at Pacific Northwest National Laboratory, a multiprogram
            national laboratory, operated for the U.S. Department of Energy
            by Battelle under Contract Number DE-AC05-76RL01830. Support
            for this work was provided by the Department of Energy Office
            of Biological and Environmental Research, Office of Basic
            Energy Sciences, and the Office of Advanced Scientific Computing.


           Job information
           ---------------

    hostname        = r310.ib.bridges2.psc.edu
    program         = nwchem
    date            = Tue Oct  1 15:17:27 2024

    compiled        = Mon_Mar_18_17:03:37_2024
    source          = /ocean/projects/pscstaff/mmadrid/nwchem-7.2.2
    nwchem branch   = 7.2.2
    nwchem revision = 74936fb9
    ga revision     = 5.8.0
    use scalapack   = F
    input           = m2e/mol.nwi
    prefix          = dft.
    data base       = .//dft.db
    status          = startup
    nproc           =       15
    time left       =     -1s



           Memory information
           ------------------

    heap     =   67108862 doubles =    512.0 Mbytes
    stack    =   67108859 doubles =    512.0 Mbytes
    global   =  134217728 doubles =   1024.0 Mbytes (distinct from heap & stack)
    total    =  268435449 doubles =   2048.0 Mbytes
    verify   = yes
    hardfail = no 


           Directory information
           ---------------------

  0 permanent = ./
  0 scratch   = /jet/home/hmt47/nwchem_scratch/




                                NWChem Input Module
                                -------------------


  library name resolved from: environment
  library file name is: </opt/packages/nwchem/nwchem7.2.2/share/nwchem/libraries/>
  


 Summary of "ao basis" -> "" (cartesian)
 ------------------------------------------------------------------------------
       Tag                 Description            Shells   Functions and Types
 ---------------- ------------------------------  ------  ---------------------
 *                        aug-cc-pVTZ                 on all atoms 


  pbe96 is a nonlocal functional; adding pw91lda local functional. 

 Scaling coordinates for geometry "geometry" by  1.889725989
 (inverse scale =  0.529177249)



                             Geometry "geometry" -> ""
                             -------------------------

 Output coordinates in angstroms (scale by  1.889725989 to convert to a.u.)

  No.       Tag          Charge          X              Y              Z
 ---- ---------------- ---------- -------------- -------------- --------------
    1 S                   16.0000     0.00000000     0.00000000     0.00000000
    2 O                    8.0000    -0.00095400     1.43507800    -0.52407300
    3 O                    8.0000     1.24322600    -0.71786900    -0.51786300
    4 O                    8.0000    -0.00075400     0.00476000     1.44490600
    5 O                    8.0000    -1.24315600    -0.71992000    -0.52061400

      Atomic Mass 
      ----------- 

      S                 31.972070
      O                 15.994910


 Effective nuclear repulsion energy (a.u.)     262.5205281466

            Nuclear Dipole moment (a.u.) 
            ----------------------------
        X                 Y               Z
 ---------------- ---------------- ----------------
    -0.0247629694     0.0309763884    -1.7785193936


            XYZ format geometry
            -------------------
     5
 geometry
 S                     0.00000000     0.00000000     0.00000000
 O                    -0.00095400     1.43507800    -0.52407300
 O                     1.24322600    -0.71786900    -0.51786300
 O                    -0.00075400     0.00476000     1.44490600
 O                    -1.24315600    -0.71992000    -0.52061400

 ==============================================================================
                                internuclear distances
 ------------------------------------------------------------------------------
       center one      |      center two      | atomic units |  angstroms
 ------------------------------------------------------------------------------
    2 O                |   1 S                |     2.88708  |     1.52778
    3 O                |   1 S                |     2.88400  |     1.52615
    4 O                |   1 S                |     2.73049  |     1.44491
    5 O                |   1 S                |     2.88749  |     1.52799
 ------------------------------------------------------------------------------
                         number of included internuclear distances:          4
 ==============================================================================



 ==============================================================================
                                 internuclear angles
 ------------------------------------------------------------------------------
        center 1       |       center 2       |       center 3       |  degrees
 ------------------------------------------------------------------------------
    2 O                |   1 S                |   3 O                |   109.02
    2 O                |   1 S                |   4 O                |   109.87
    2 O                |   1 S                |   5 O                |   108.98
    3 O                |   1 S                |   4 O                |   109.96
    3 O                |   1 S                |   5 O                |   109.00
    4 O                |   1 S                |   5 O                |   109.99
 ------------------------------------------------------------------------------
                            number of included internuclear angles:          6
 ==============================================================================





                           NWChem Geometry Optimization
                           ----------------------------


 maximum gradient threshold         (gmax) =   0.000450
 rms gradient threshold             (grms) =   0.000300
 maximum cartesian step threshold   (xmax) =   0.001800
 rms cartesian step threshold       (xrms) =   0.001200
 fixed trust radius                (trust) =   0.300000
 maximum step size to saddle      (sadstp) =   0.100000
 energy precision                  (eprec) =   5.0D-06
 maximum number of steps          (nptopt) =   40
 initial hessian option           (inhess) =    0
 line search option               (linopt) =    1
 hessian update option            (modupd) =    1
 saddle point option              (modsad) =    0
 initial eigen-mode to follow     (moddir) =    0
 initial variable to follow       (vardir) =    0
 follow first negative mode     (firstneg) =    T
 apply conjugacy                    (opcg) =    F
 source of zmatrix                         =           


          -------------------
          Energy Minimization
          -------------------


 Using diagonal initial Hessian 

          --------
          Step   0
          --------


                         Geometry "geometry" -> "geometry"
                         ---------------------------------

 Output coordinates in angstroms (scale by  1.889725989 to convert to a.u.)

  No.       Tag          Charge          X              Y              Z
 ---- ---------------- ---------- -------------- -------------- --------------
    1 S                   16.0000     0.00000000     0.00000000     0.00000000
    2 O                    8.0000    -0.00095400     1.43507800    -0.52407300
    3 O                    8.0000     1.24322600    -0.71786900    -0.51786300
    4 O                    8.0000    -0.00075400     0.00476000     1.44490600
    5 O                    8.0000    -1.24315600    -0.71992000    -0.52061400

      Atomic Mass 
      ----------- 

      S                 31.972070
      O                 15.994910


 Effective nuclear repulsion energy (a.u.)     262.5205281466

            Nuclear Dipole moment (a.u.) 
            ----------------------------
        X                 Y               Z
 ---------------- ---------------- ----------------
    -0.0247629694     0.0309763884    -1.7785193936


                                 NWChem DFT Module
                                 -----------------


                      Basis "ao basis" -> "ao basis" (cartesian)
                      -----
  S (Sulphur)
  -----------
            Exponent  Coefficients 
       -------------- ---------------------------------------------------------
  1 S  3.74100000E+05  0.000054
  1 S  5.60500000E+04  0.000421
  1 S  1.27600000E+04  0.002207
  1 S  3.61500000E+03  0.009193
  1 S  1.18300000E+03  0.032112
  1 S  4.28800000E+02  0.094668
  1 S  1.67800000E+02  0.223630
  1 S  6.94700000E+01  0.374393
  1 S  2.98400000E+01  0.329108
  1 S  1.27200000E+01  0.084704
  1 S  5.24400000E+00  0.000441
  1 S  2.21900000E+00  0.001648
  1 S  3.49000000E-01  0.000301

  2 S  3.74100000E+05 -0.000015
  2 S  5.60500000E+04 -0.000116
  2 S  1.27600000E+04 -0.000612
  2 S  3.61500000E+03 -0.002554
  2 S  1.18300000E+03 -0.009087
  2 S  4.28800000E+02 -0.027705
  2 S  1.67800000E+02 -0.072002
  2 S  6.94700000E+01 -0.146439
  2 S  2.98400000E+01 -0.195150
  2 S  1.27200000E+01  0.008192
  2 S  5.24400000E+00  0.516601
  2 S  2.21900000E+00  0.542178
  2 S  3.49000000E-01 -0.009181

  3 S  3.74100000E+05  0.000004
  3 S  5.60500000E+04  0.000034
  3 S  1.27600000E+04  0.000178
  3 S  3.61500000E+03  0.000741
  3 S  1.18300000E+03  0.002646
  3 S  4.28800000E+02  0.008075
  3 S  1.67800000E+02  0.021228
  3 S  6.94700000E+01  0.043832
  3 S  2.98400000E+01  0.061272
  3 S  1.27200000E+01 -0.003615
  3 S  5.24400000E+00 -0.204510
  3 S  2.21900000E+00 -0.381871
  3 S  3.49000000E-01  0.714147

  4 S  7.76700000E-01  1.000000

  5 S  1.32200000E-01  1.000000

  6 S  4.97000000E-02  1.000000

  7 P  5.74400000E+02  0.002423
  7 P  1.35800000E+02  0.019280
  7 P  4.31900000E+01  0.088540
  7 P  1.58700000E+01  0.254654
  7 P  6.20800000E+00  0.433984
  7 P  2.48300000E+00  0.354953
  7 P  3.22900000E-01 -0.005030

  8 P  5.74400000E+02 -0.000620
  8 P  1.35800000E+02 -0.004939
  8 P  4.31900000E+01 -0.023265
  8 P  1.58700000E+01 -0.068520
  8 P  6.20800000E+00 -0.123896
  8 P  2.48300000E+00 -0.096950
  8 P  3.22900000E-01  0.569394

  9 P  8.68800000E-01  1.000000

 10 P  1.09800000E-01  1.000000

 11 P  3.51000000E-02  1.000000

 12 D  2.69000000E-01  1.000000

 13 D  8.19000000E-01  1.000000

 14 D  1.01000000E-01  1.000000

 15 F  5.57000000E-01  1.000000

 16 F  2.18000000E-01  1.000000

  O (Oxygen)
  ----------
            Exponent  Coefficients 
       -------------- ---------------------------------------------------------
  1 S  1.53300000E+04  0.000508
  1 S  2.29900000E+03  0.003929
  1 S  5.22400000E+02  0.020243
  1 S  1.47300000E+02  0.079181
  1 S  4.75500000E+01  0.230687
  1 S  1.67600000E+01  0.433118
  1 S  6.20700000E+00  0.350260
  1 S  6.88200000E-01 -0.008154

  2 S  1.53300000E+04 -0.000115
  2 S  2.29900000E+03 -0.000895
  2 S  5.22400000E+02 -0.004636
  2 S  1.47300000E+02 -0.018724
  2 S  4.75500000E+01 -0.058463
  2 S  1.67600000E+01 -0.136463
  2 S  6.20700000E+00 -0.175740
  2 S  6.88200000E-01  0.603418

  3 S  1.75200000E+00  1.000000

  4 S  2.38400000E-01  1.000000

  5 S  7.37600000E-02  1.000000

  6 P  3.44600000E+01  0.015928
  6 P  7.74900000E+00  0.099740
  6 P  2.28000000E+00  0.310492

  7 P  7.15600000E-01  1.000000

  8 P  2.14000000E-01  1.000000

  9 P  5.97400000E-02  1.000000

 10 D  2.31400000E+00  1.000000

 11 D  6.45000000E-01  1.000000

 12 D  2.14000000E-01  1.000000

 13 F  1.42800000E+00  1.000000

 14 F  5.00000000E-01  1.000000



 Summary of "ao basis" -> "ao basis" (cartesian)
 ------------------------------------------------------------------------------
       Tag                 Description            Shells   Functions and Types
 ---------------- ------------------------------  ------  ---------------------
 S                        aug-cc-pVTZ               16       59   6s5p3d2f
 O                        aug-cc-pVTZ               14       55   5s4p3d2f




 Summary of "ao basis" -> "ao basis" (cartesian)
 ------------------------------------------------------------------------------
       Tag                 Description            Shells   Functions and Types
 ---------------- ------------------------------  ------  ---------------------
 S                        aug-cc-pVTZ               16       59   6s5p3d2f
 O                        aug-cc-pVTZ               14       55   5s4p3d2f


  Caching 1-el integrals 

            General Information
            -------------------
          SCF calculation type: DFT
          Wavefunction type:  closed shell.
          No. of atoms     :     5
          No. of electrons :    50
           Alpha electrons :    25
            Beta electrons :    25
          Charge           :    -2
          Spin multiplicity:     1
          Use of symmetry is: off; symmetry adaption is: off
          Maximum number of iterations: 100
          AO basis - number of functions:   279
                     number of shells:    72
          Convergence on energy requested:  1.00D-06
          Convergence on density requested:  1.00D-05
          Convergence on gradient requested:  5.00D-04

              XC Information
              --------------
          PerdewBurkeErnzerhof Exchange Functional  1.000          
            Perdew 1991 LDA Correlation Functional  1.000 local    
           PerdewBurkeErnz. Correlation Functional  1.000 non-local

             Grid Information
             ----------------
          Grid used for XC integration:  medium    
          Radial quadrature: Mura-Knowles        
          Angular quadrature: Lebedev. 
          Tag              B.-S. Rad. Rad. Pts. Rad. Cut. Ang. Pts.
          ---              ---------- --------- --------- ---------
          S                   1.00       88          10.0       590
          O                   0.60       49          11.0       434
          Grid pruning is: on 
          Number of quadrature shells:   284
          Spatial weights used:  Erf1

          Convergence Information
          -----------------------
          Convergence aids based upon iterative change in 
          total energy or number of iterations. 
          Levelshifting, if invoked, occurs when the 
          HOMO/LUMO gap drops below (HL_TOL):  1.00D-02
          DIIS, if invoked, will attempt to extrapolate 
          using up to (NFOCK): 10 stored Fock matrices.

                    Damping(40%)  Levelshifting(0.0)       DIIS
                  --------------- ------------------- ---------------
          dE  on:    start            0.00D+00            start   
          dE off:  100 iters          0.00D+00          100 iters 


      Screening Tolerance Information
      -------------------------------
          Density screening/tol_rho:  1.00D-10
          AO Gaussian exp screening on grid/accAOfunc:  14
          CD Gaussian exp screening on grid/accCDfunc:  20
          XC Gaussian exp screening on grid/accXCfunc:  20
          Schwarz screening/accCoul:  1.00D-08


 Forcing the number of linearly dependent vectors to be  0

      Superposition of Atomic Density Guess
      -------------------------------------

 Sum of atomic energies:        -696.61213433
   Time after variat. SCF:      0.4
   Time prior to 1st pass:      0.4

 Grid_pts file          = /jet/home/hmt47/nwchem_scratch//dft.gridpts.00
 Record size in doubles =  12289        No. of grid_pts per rec  =   3070
 Max. records in memory =      5        Max. recs in file   =  67550051

 Grid integrated density:      48.000001668542
 Requested integration accuracy:   0.10E-05

           Memory utilization after 1st SCF pass: 
           Heap Space remaining (MW):       33.36            33363910
          Stack Space remaining (MW):       67.11            67107364

   convergence    iter        energy       DeltaE   RMS-Dens  Diis-err    time
 ---------------- ----- ----------------- --------- --------- ---------  ------
 d=40,ls=0.0,diis     1   -699.7864468278 -9.62D+02  1.41D-02  5.61D+01     1.1
 Grid integrated density:      49.200001076034
 Requested integration accuracy:   0.10E-05
 d=40,ls=0.0,diis     2   -699.1490206219  6.37D-01  2.38D+00  1.01D+01     3.6
 Grid integrated density:      49.679991413286
 Requested integration accuracy:   0.10E-05
 d=40,ls=0.0,diis     3   -696.3920847488  2.76D+00  1.42D+00  1.06D+01     6.2
 Grid integrated density:      49.871997067045
 Requested integration accuracy:   0.10E-05
 d=40,ls=0.0,diis     4   -698.3406253640 -1.95D+00  5.70D-01  1.32D+00     8.9
 Grid integrated density:      49.948799458170
 Requested integration accuracy:   0.10E-05
 d=40,ls=0.0,diis     5   -698.6250377293 -2.84D-01  2.28D-01  9.87D-02    11.5
 Grid integrated density:      49.979520440866
 Requested integration accuracy:   0.10E-05
 d=40,ls=0.0,diis     6   -698.6776195224 -5.26D-02  9.10D-02  6.10D-02    14.2
 Grid integrated density:      49.991808910414
 Requested integration accuracy:   0.10E-05
  Resetting Diis
 d=40,ls=0.0,diis     7   -698.7012019769 -2.36D-02  3.65D-02  2.38D-02    16.8
 Grid integrated density:      49.996724480716
 Requested integration accuracy:   0.10E-05
 d=40,ls=0.0,diis     8   -698.7111737516 -9.97D-03  1.45D-02  7.28D-03    19.4
 Grid integrated density:      49.998690694203
 Requested integration accuracy:   0.10E-05
 d=40,ls=0.0,diis     9   -698.7143801128 -3.21D-03  5.87D-03  6.16D-03    22.0
 Grid integrated density:      49.999477126245
 Requested integration accuracy:   0.10E-05
 d=40,ls=0.0,diis    10   -698.7165469444 -2.17D-03  2.36D-03  8.09D-04    24.6
 Grid integrated density:      49.999791703276
 Requested integration accuracy:   0.10E-05
 d=40,ls=0.0,diis    11   -698.7173281328 -7.81D-04  9.49D-04  1.17D-04    27.2
 Grid integrated density:      49.999917533481
 Requested integration accuracy:   0.10E-05
 d=40,ls=0.0,diis    12   -698.7176314843 -3.03D-04  3.80D-04  2.61D-05    29.8
 d=40,ls=0.0,diis    13   -698.7177521840 -1.21D-04  1.53D-04  5.39D-06    32.4
 d=40,ls=0.0,diis    14   -698.7178002697 -4.81D-05  6.21D-05  1.12D-06    34.9
 d=40,ls=0.0,diis    15   -698.7178194749 -1.92D-05  2.46D-05  1.56D-07    37.5
 d=40,ls=0.0,diis    16   -698.7178271416 -7.67D-06  9.88D-06  2.15D-08    40.1
 d=40,ls=0.0,diis    17   -698.7178302020 -3.06D-06  3.96D-06  3.60D-09    42.7
 d=40,ls=0.0,diis    18   -698.7178314275 -1.23D-06  1.63D-06  6.27D-10    45.3
 d=40,ls=0.0,diis    19   -698.7178319177 -4.90D-07  6.79D-07  1.25D-10    47.9


         Total DFT energy =     -698.717831917697
      One electron energy =    -1507.527481206166
           Coulomb energy =      606.435693813032
    Exchange-Corr. energy =      -60.146572671124
 Nuclear repulsion energy =      262.520528146561

 Numeric. integr. density =       50.000001283494

     Total iterative time =     47.5s



                       DFT Final Molecular Orbital Analysis
                       ------------------------------------

 Vector    1  Occ=2.000000D+00  E=-8.785771D+01
              MO Center= -2.8D-08, -3.2D-09, -1.2D-06, r^2= 3.6D-03
   Bfn.  Coefficient  Atom+Function         Bfn.  Coefficient  Atom+Function  
  ----- ------------  ---------------      ----- ------------  ---------------
     1      1.006118  1 S  s                  5     -0.208300  1 S  s          
     3      0.053720  1 S  s                173      0.049920  4 O  s          
    63      0.046440  2 O  s                118      0.046488  3 O  s          
   228      0.046377  5 O  s                  2      0.040181  1 S  s          
   183     -0.033437  4 O  pz                72     -0.032613  2 O  py         

 Vector    2  Occ=2.000000D+00  E=-1.833179D+01
              MO Center= -7.5D-04,  4.8D-03,  1.4D+00, r^2= 1.5D-02
   Bfn.  Coefficient  Atom+Function         Bfn.  Coefficient  Atom+Function  
  ----- ------------  ---------------      ----- ------------  ---------------
   170      0.978292  4 O  s                173     -0.073660  4 O  s          
     5      0.062916  1 S  s                172      0.062887  4 O  s          
    18     -0.029585  1 S  pz         

 Vector    3  Occ=2.000000D+00  E=-1.832296D+01
              MO Center=  1.2D+00, -7.2D-01, -5.2D-01, r^2= 1.9D-02
   Bfn.  Coefficient  Atom+Function         Bfn.  Coefficient  Atom+Function  
  ----- ------------  ---------------      ----- ------------  ---------------
   115      0.977889  3 O  s                118     -0.067883  3 O  s          
   117      0.062456  3 O  s                  5      0.060967  1 S  s          

 Vector    4  Occ=2.000000D+00  E=-1.832282D+01
              MO Center= -1.2D+00, -7.2D-01, -5.2D-01, r^2= 2.2D-02
   Bfn.  Coefficient  Atom+Function         Bfn.  Coefficient  Atom+Function  
  ----- ------------  ---------------      ----- ------------  ---------------
   225      0.977647  5 O  s                228     -0.067099  5 O  s          
   227      0.062421  5 O  s                  5      0.058987  1 S  s          

 Vector    5  Occ=2.000000D+00  E=-1.832269D+01
              MO Center= -1.6D-03,  1.4D+00, -5.2D-01, r^2= 2.0D-02
   Bfn.  Coefficient  Atom+Function         Bfn.  Coefficient  Atom+Function  
  ----- ------------  ---------------      ----- ------------  ---------------
    60      0.977800  2 O  s                 63     -0.066435  2 O  s          
    62      0.062415  2 O  s                  5      0.056888  1 S  s          

 Vector    6  Occ=2.000000D+00  E=-7.437996D+00
              MO Center=  7.0D-07, -2.1D-06,  8.5D-05, r^2= 7.7D-02
   Bfn.  Coefficient  Atom+Function         Bfn.  Coefficient  Atom+Function  
  ----- ------------  ---------------      ----- ------------  ---------------
     2      0.889965  1 S  s                  5      0.180030  1 S  s          
     4      0.120148  1 S  s                  3     -0.060648  1 S  s          
   173     -0.059740  4 O  s                 63     -0.053966  2 O  s          
   118     -0.054055  3 O  s                228     -0.053898  5 O  s          
   183      0.039782  4 O  pz                72      0.036666  2 O  py         

 Vector    7  Occ=2.000000D+00  E=-5.459539D+00
              MO Center=  8.7D-07,  3.9D-07,  2.0D-05, r^2= 6.9D-02
   Bfn.  Coefficient  Atom+Function         Bfn.  Coefficient  Atom+Function  
  ----- ------------  ---------------      ----- ------------  ---------------
     9      1.113556  1 S  pz                12      0.317494  1 S  pz         
     5      0.181504  1 S  s                173     -0.173836  4 O  s          
   183      0.105821  4 O  pz                42     -0.103809  1 S  fxxz       
    47     -0.103688  1 S  fyyz              49     -0.096727  1 S  fzzz       
    27      0.077571  1 S  dzz              204     -0.042189  4 O  dzz        

 Vector    8  Occ=2.000000D+00  E=-5.459387D+00
              MO Center= -3.4D-06, -1.1D-05, -1.1D-06, r^2= 6.9D-02
   Bfn.  Coefficient  Atom+Function         Bfn.  Coefficient  Atom+Function  
  ----- ------------  ---------------      ----- ------------  ---------------
     7      1.080062  1 S  px                10      0.266703  1 S  px         
     8      0.156794  1 S  py                45     -0.092339  1 S  fxzz       
    40     -0.087424  1 S  fxxx              43     -0.087392  1 S  fxyy       
   228      0.075925  5 O  s                118     -0.066439  3 O  s          
    23     -0.064324  1 S  dxy               24     -0.046950  1 S  dxz        

 Vector    9  Occ=2.000000D+00  E=-5.459384D+00
              MO Center=  3.0D-06,  1.2D-05, -1.1D-06, r^2= 6.9D-02
   Bfn.  Coefficient  Atom+Function         Bfn.  Coefficient  Atom+Function  
  ----- ------------  ---------------      ----- ------------  ---------------
     8      1.080030  1 S  py                11      0.266541  1 S  py         
     7     -0.157157  1 S  px                48     -0.092261  1 S  fyzz       
    41     -0.087350  1 S  fxxy              46     -0.087433  1 S  fyyy       
    63     -0.081736  2 O  s                118      0.051772  3 O  s          
    72      0.050871  2 O  py                26     -0.047145  1 S  dyz        

 Vector   10  Occ=2.000000D+00  E=-6.338783D-01
              MO Center=  2.2D-03, -1.8D-04,  2.1D-01, r^2= 1.4D+00
   Bfn.  Coefficient  Atom+Function         Bfn.  Coefficient  Atom+Function  
  ----- ------------  ---------------      ----- ------------  ---------------
     5      0.513911  1 S  s                  3     -0.392257  1 S  s          
   173     -0.319714  4 O  s                118     -0.235526  3 O  s          
   171     -0.236555  4 O  s                 63     -0.234191  2 O  s          
   228     -0.233972  5 O  s                116     -0.150960  3 O  s          
    61     -0.149717  2 O  s                226     -0.149583  5 O  s          

 Vector   11  Occ=2.000000D+00  E=-4.930572D-01
              MO Center=  7.1D-03, -5.1D-03,  4.9D-01, r^2= 1.7D+00
   Bfn.  Coefficient  Atom+Function         Bfn.  Coefficient  Atom+Function  
  ----- ------------  ---------------      ----- ------------  ---------------
   171      0.370038  4 O  s                173      0.207750  4 O  s          
   116     -0.168551  3 O  s                226     -0.163588  5 O  s          
    61     -0.162083  2 O  s                 15      0.161003  1 S  pz         
   118     -0.140393  3 O  s                228     -0.136985  5 O  s          
    63     -0.135996  2 O  s                  9     -0.116820  1 S  pz         

 Vector   12  Occ=2.000000D+00  E=-4.667894D-01
              MO Center=  4.9D-01, -2.6D-01, -4.1D-01, r^2= 1.7D+00
   Bfn.  Coefficient  Atom+Function         Bfn.  Coefficient  Atom+Function  
  ----- ------------  ---------------      ----- ------------  ---------------
   116      0.383388  3 O  s                118      0.261978  3 O  s          
    61     -0.200002  2 O  s                226     -0.189552  5 O  s          
    63     -0.137594  2 O  s                228     -0.130472  5 O  s          
    13      0.129257  1 S  px               117      0.106268  3 O  s          
     7     -0.093766  1 S  px               119      0.078798  3 O  s          

 Vector   13  Occ=2.000000D+00  E=-4.662313D-01
              MO Center= -5.0D-01,  2.7D-01, -4.1D-01, r^2= 1.6D+00
   Bfn.  Coefficient  Atom+Function         Bfn.  Coefficient  Atom+Function  
  ----- ------------  ---------------      ----- ------------  ---------------
   226     -0.336595  5 O  s                 61      0.331146  2 O  s          
   228     -0.230729  5 O  s                 63      0.226951  2 O  s          
    14      0.129071  1 S  py                 8     -0.093610  1 S  py         
   227     -0.093335  5 O  s                 62      0.091822  2 O  s          
    13      0.077105  1 S  px               229     -0.068859  5 O  s          

 Vector   14  Occ=2.000000D+00  E=-1.087600D-01
              MO Center=  6.4D-04, -5.3D-04,  5.2D-02, r^2= 3.1D+00
   Bfn.  Coefficient  Atom+Function         Bfn.  Coefficient  Atom+Function  
  ----- ------------  ---------------      ----- ------------  ---------------
     3      0.397134  1 S  s                171     -0.196152  4 O  s          
    61     -0.183075  2 O  s                116     -0.183426  3 O  s          
   226     -0.183209  5 O  s                  6      0.150081  1 S  s          
    63     -0.127865  2 O  s                118     -0.128028  3 O  s          
   173     -0.128420  4 O  s                228     -0.128072  5 O  s          

 Vector   15  Occ=2.000000D+00  E=-1.508065D-02
              MO Center= -2.3D-01, -3.1D-01, -2.0D-01, r^2= 2.6D+00
   Bfn.  Coefficient  Atom+Function         Bfn.  Coefficient  Atom+Function  
  ----- ------------  ---------------      ----- ------------  ---------------
    13      0.221390  1 S  px               228      0.179153  5 O  s          
   226      0.170591  5 O  s                  7     -0.135500  1 S  px         
   230     -0.127492  5 O  px               233     -0.126774  5 O  px         
   118     -0.120997  3 O  s                116     -0.115627  3 O  s          
   175      0.113671  4 O  px               178      0.112735  4 O  px         

 Vector   16  Occ=2.000000D+00  E=-1.504120D-02
              MO Center=  2.3D-01,  3.0D-01, -2.0D-01, r^2= 2.6D+00
   Bfn.  Coefficient  Atom+Function         Bfn.  Coefficient  Atom+Function  
  ----- ------------  ---------------      ----- ------------  ---------------
    14      0.221396  1 S  py                63     -0.172792  2 O  s          
    61     -0.164660  2 O  s                 66     -0.150941  2 O  py         
    69     -0.150101  2 O  py                 8     -0.135509  1 S  py         
   118      0.135852  3 O  s                120      0.131755  3 O  px         
   123      0.130951  3 O  px               116      0.129669  3 O  s          

 Vector   17  Occ=2.000000D+00  E=-1.415923D-02
              MO Center=  5.3D-03,  1.0D-02,  6.4D-01, r^2= 2.5D+00
   Bfn.  Coefficient  Atom+Function         Bfn.  Coefficient  Atom+Function  
  ----- ------------  ---------------      ----- ------------  ---------------
    15      0.231919  1 S  pz               177     -0.223947  4 O  pz         
   180     -0.219151  4 O  pz               173     -0.185145  4 O  s          
   171     -0.182577  4 O  s                  9     -0.144020  1 S  pz         
   183     -0.108866  4 O  pz                66      0.096355  2 O  py         
    69      0.095140  2 O  py                42      0.091454  1 S  fxxz       

 Vector   18  Occ=2.000000D+00  E= 9.835625D-02
              MO Center=  2.2D-01, -1.6D-02,  4.5D-01, r^2= 2.6D+00
   Bfn.  Coefficient  Atom+Function         Bfn.  Coefficient  Atom+Function  
  ----- ------------  ---------------      ----- ------------  ---------------
   175      0.180564  4 O  px               178      0.179733  4 O  px         
   176     -0.170000  4 O  py               179     -0.169220  4 O  py         
   120      0.133935  3 O  px               181      0.132008  4 O  px         
    30      0.129682  1 S  dxz              123      0.129882  3 O  px         
   182     -0.124197  4 O  py                32     -0.121983  1 S  dyz        

 Vector   19  Occ=2.000000D+00  E= 9.848301D-02
              MO Center= -2.2D-01,  1.3D-02,  4.5D-01, r^2= 2.6D+00
   Bfn.  Coefficient  Atom+Function         Bfn.  Coefficient  Atom+Function  
  ----- ------------  ---------------      ----- ------------  ---------------
   176      0.180334  4 O  py               179      0.179521  4 O  py         
   175      0.170239  4 O  px               178      0.169471  4 O  px         
   230      0.134126  5 O  px               182      0.131796  4 O  py         
   233      0.130169  5 O  px                32      0.129103  1 S  dyz        
   181      0.124509  4 O  px                30      0.122005  1 S  dxz        

 Vector   20  Occ=2.000000D+00  E= 1.124481D-01
              MO Center=  4.3D-03, -8.3D-03, -2.0D-01, r^2= 3.0D+00
   Bfn.  Coefficient  Atom+Function         Bfn.  Coefficient  Atom+Function  
  ----- ------------  ---------------      ----- ------------  ---------------
   174     -0.232154  4 O  s                 18      0.218825  1 S  pz         
   122      0.180548  3 O  pz               232      0.178340  5 O  pz         
    67      0.176844  2 O  pz               125      0.176799  3 O  pz         
   235      0.174693  5 O  pz                70      0.173201  2 O  pz         
   177      0.170063  4 O  pz               180      0.154077  4 O  pz         

 Vector   21  Occ=2.000000D+00  E= 1.153238D-01
              MO Center=  2.8D-01, -7.9D-02, -4.0D-01, r^2= 2.9D+00
   Bfn.  Coefficient  Atom+Function         Bfn.  Coefficient  Atom+Function  
  ----- ------------  ---------------      ----- ------------  ---------------
   121      0.186450  3 O  py               124      0.184990  3 O  py         
   127      0.145470  3 O  py               229      0.143158  5 O  s          
   231      0.141507  5 O  py               234      0.137024  5 O  py         
    65      0.135713  2 O  px                68      0.134338  2 O  px         
   120      0.127092  3 O  px                17      0.124563  1 S  py         

 Vector   22  Occ=2.000000D+00  E= 1.154365D-01
              MO Center= -2.9D-01,  8.9D-02, -4.1D-01, r^2= 2.9D+00
   Bfn.  Coefficient  Atom+Function         Bfn.  Coefficient  Atom+Function  
  ----- ------------  ---------------      ----- ------------  ---------------
    65      0.181406  2 O  px                68      0.179568  2 O  px         
   119     -0.153870  3 O  s                231     -0.153381  5 O  py         
   234     -0.153162  5 O  py               230      0.151686  5 O  px         
   233      0.147841  5 O  px                29      0.143455  1 S  dxy        
    23      0.142112  1 S  dxy               71      0.136904  2 O  px         

 Vector   23  Occ=2.000000D+00  E= 1.819315D-01
              MO Center=  2.1D-01, -3.6D-01,  1.1D-03, r^2= 2.8D+00
   Bfn.  Coefficient  Atom+Function         Bfn.  Coefficient  Atom+Function  
  ----- ------------  ---------------      ----- ------------  ---------------
   125      0.237247  3 O  pz               122      0.235207  3 O  pz         
   178     -0.205174  4 O  px               175     -0.201780  4 O  px         
   128      0.196444  3 O  pz               181     -0.175055  4 O  px         
   235     -0.173393  5 O  pz               232     -0.171937  5 O  pz         
   131      0.149707  3 O  pz               238     -0.143508  5 O  pz         

 Vector   24  Occ=2.000000D+00  E= 1.820842D-01
              MO Center= -2.1D-01,  3.6D-01, -2.9D-03, r^2= 2.8D+00
   Bfn.  Coefficient  Atom+Function         Bfn.  Coefficient  Atom+Function  
  ----- ------------  ---------------      ----- ------------  ---------------
    70      0.237508  2 O  pz                67      0.235506  2 O  pz         
   179     -0.204949  4 O  py               176     -0.201541  4 O  py         
    73      0.196588  2 O  pz               182     -0.174841  4 O  py         
   235     -0.174379  5 O  pz               232     -0.172903  5 O  pz         
    76      0.149852  2 O  pz               238     -0.144388  5 O  pz         

 Vector   25  Occ=2.000000D+00  E= 1.863905D-01
              MO Center= -9.3D-03,  4.4D-03, -5.1D-01, r^2= 2.8D+00
   Bfn.  Coefficient  Atom+Function         Bfn.  Coefficient  Atom+Function  
  ----- ------------  ---------------      ----- ------------  ---------------
    68      0.231113  2 O  px                65      0.229085  2 O  px         
   234      0.200512  5 O  py               124     -0.198169  3 O  py         
   231      0.198770  5 O  py               121     -0.196391  3 O  py         
    71      0.192805  2 O  px               237      0.167306  5 O  py         
   127     -0.165374  3 O  py                74      0.152942  2 O  px         

 Vector   26  Occ=0.000000D+00  E= 2.702302D-01
              MO Center=  2.1D-02, -1.6D-02,  1.6D+00, r^2= 1.5D+01
   Bfn.  Coefficient  Atom+Function         Bfn.  Coefficient  Atom+Function  
  ----- ------------  ---------------      ----- ------------  ---------------
     6     10.559328  1 S  s                174     -7.659335  4 O  s          
   119     -4.486675  3 O  s                 64     -4.416240  2 O  s          
   229     -4.431871  5 O  s                  5      3.360940  1 S  s          
    39      2.162462  1 S  dzz              186      1.835898  4 O  pz         
    18      1.744862  1 S  pz                34      1.746216  1 S  dxx        

 Vector   27  Occ=0.000000D+00  E= 2.741782D-01
              MO Center= -3.7D-02, -2.5D-01, -1.3D-01, r^2= 2.0D+01
   Bfn.  Coefficient  Atom+Function         Bfn.  Coefficient  Atom+Function  
  ----- ------------  ---------------      ----- ------------  ---------------
   229      4.219334  5 O  s                 16      3.885063  1 S  px         
   119     -3.886667  3 O  s                 19      3.578268  1 S  px         
    35     -0.883443  1 S  dxy               50     -0.873539  1 S  fxxx       
    53     -0.874066  1 S  fxyy              55     -0.842016  1 S  fxzz       
   184     -0.817304  4 O  px                74     -0.783506  2 O  px         

 Vector   28  Occ=0.000000D+00  E= 2.741867D-01
              MO Center=  4.1D-02,  2.4D-01, -1.3D-01, r^2= 2.0D+01
   Bfn.  Coefficient  Atom+Function         Bfn.  Coefficient  Atom+Function  
  ----- ------------  ---------------      ----- ------------  ---------------
    64      4.649257  2 O  s                 17     -3.884600  1 S  py         
    20     -3.578575  1 S  py               119     -2.691939  3 O  s          
   229     -2.041914  5 O  s                 51      0.871500  1 S  fxxy       
    56      0.871830  1 S  fyyy              58      0.840315  1 S  fyzz       
   185      0.817325  4 O  py                38      0.657440  1 S  dyz        

 Vector   29  Occ=0.000000D+00  E= 2.748104D-01
              MO Center= -2.2D-02,  2.4D-02, -1.1D+00, r^2= 1.8D+01
   Bfn.  Coefficient  Atom+Function         Bfn.  Coefficient  Atom+Function  
  ----- ------------  ---------------      ----- ------------  ---------------
     6      4.241240  1 S  s                 18     -3.823786  1 S  pz         
    64     -3.655267  2 O  s                229     -3.606690  5 O  s          
   119     -3.514283  3 O  s                 21     -3.281152  1 S  pz         
   174      2.804485  4 O  s                  5      1.501072  1 S  s          
    75      0.995892  2 O  py                37      0.927791  1 S  dyy        

 Vector   30  Occ=0.000000D+00  E= 3.553825D-01
              MO Center= -6.4D-01,  8.3D-02, -3.7D-01, r^2= 1.6D+01
   Bfn.  Coefficient  Atom+Function         Bfn.  Coefficient  Atom+Function  
  ----- ------------  ---------------      ----- ------------  ---------------
    17      4.956291  1 S  py                16      4.488644  1 S  px         
   229      4.065231  5 O  s                 64     -3.261579  2 O  s          
   239      2.567540  5 O  px                75      2.439467  2 O  py         
   240      1.649519  5 O  py                20     -1.563251  1 S  py         
    19     -1.416063  1 S  px                56     -1.181985  1 S  fyyy       

 Vector   31  Occ=0.000000D+00  E= 3.553928D-01
              MO Center=  6.5D-01, -5.6D-02, -3.7D-01, r^2= 1.6D+01
   Bfn.  Coefficient  Atom+Function         Bfn.  Coefficient  Atom+Function  
  ----- ------------  ---------------      ----- ------------  ---------------
    16      4.967628  1 S  px                17     -4.490435  1 S  py         
   119     -4.214997  3 O  s                 64      2.934230  2 O  s          
   129      2.684143  3 O  px                75     -2.197465  2 O  py         
   130     -1.661261  3 O  py                19     -1.568242  1 S  px         
    20      1.417357  1 S  py               229      1.353216  5 O  s          

 Vector   32  Occ=0.000000D+00  E= 3.558752D-01
              MO Center= -6.1D-03, -3.0D-02,  8.1D-01, r^2= 1.6D+01
   Bfn.  Coefficient  Atom+Function         Bfn.  Coefficient  Atom+Function  
  ----- ------------  ---------------      ----- ------------  ---------------
    18      6.929689  1 S  pz               174     -5.447891  4 O  s          
   186      3.981916  4 O  pz                21     -2.297594  1 S  pz         
    59     -1.783414  1 S  fzzz              52     -1.501403  1 S  fxxz       
    57     -1.486944  1 S  fyyz             229      1.385397  5 O  s          
   119      1.323661  3 O  s                 64      1.042221  2 O  s          

 Vector   33  Occ=0.000000D+00  E= 3.698604D-01
              MO Center= -1.4D-02, -8.6D-02, -6.7D-02, r^2= 1.4D+01
   Bfn.  Coefficient  Atom+Function         Bfn.  Coefficient  Atom+Function  
  ----- ------------  ---------------      ----- ------------  ---------------
    38      3.412387  1 S  dyz              185     -1.335968  4 O  py         
    34     -1.088085  1 S  dxx               37      1.092543  1 S  dyy        
    76     -0.965828  2 O  pz                26      0.894113  1 S  dyz        
   182     -0.834585  4 O  py               129      0.753337  3 O  px         
   240      0.726247  5 O  py               239     -0.718641  5 O  px         

 Vector   34  Occ=0.000000D+00  E= 3.698793D-01
              MO Center=  1.3D-02,  9.0D-02, -7.2D-02, r^2= 1.4D+01
   Bfn.  Coefficient  Atom+Function         Bfn.  Coefficient  Atom+Function  
  ----- ------------  ---------------      ----- ------------  ---------------
    36      3.425702  1 S  dxz               35     -2.156121  1 S  dxy        
   184     -1.336262  4 O  px                74      1.090050  2 O  px         
    24      0.896389  1 S  dxz              241      0.877349  5 O  pz         
   181     -0.833414  4 O  px               131     -0.804618  3 O  pz         
   130      0.793277  3 O  py                71      0.758847  2 O  px         

 Vector   35  Occ=0.000000D+00  E= 4.008925D-01
              MO Center= -1.4D-03,  2.3D-03, -1.0D-01, r^2= 1.5D+01
   Bfn.  Coefficient  Atom+Function         Bfn.  Coefficient  Atom+Function  
  ----- ------------  ---------------      ----- ------------  ---------------
     5     12.485215  1 S  s                  6     -5.305899  1 S  s          
    39      4.772680  1 S  dzz               34      4.744210  1 S  dxx        
    37      4.746145  1 S  dyy              174     -3.335783  4 O  s          
    64     -2.649374  2 O  s                119     -2.662091  3 O  s          
   229     -2.650175  5 O  s                186      2.015804  4 O  pz         

 Vector   36  Occ=0.000000D+00  E= 4.433797D-01
              MO Center= -6.9D-02, -3.7D-01,  3.0D-01, r^2= 1.4D+01
   Bfn.  Coefficient  Atom+Function         Bfn.  Coefficient  Atom+Function  
  ----- ------------  ---------------      ----- ------------  ---------------
   184      2.352458  4 O  px               241      1.805158  5 O  pz         
   131     -1.626614  3 O  pz                19     -0.489981  1 S  px         
   181     -0.432573  4 O  px                74     -0.423340  2 O  px         
   238     -0.386261  5 O  pz               129     -0.366161  3 O  px         
   239     -0.361387  5 O  px               229      0.350887  5 O  s          

 Vector   37  Occ=0.000000D+00  E= 4.434010D-01
              MO Center=  6.8D-02,  3.7D-01,  3.0D-01, r^2= 1.4D+01
   Bfn.  Coefficient  Atom+Function         Bfn.  Coefficient  Atom+Function  
  ----- ------------  ---------------      ----- ------------  ---------------
   185      2.349261  4 O  py                76     -1.973392  2 O  pz         
   131      1.158040  3 O  pz               241      0.841188  5 O  pz         
    20     -0.483604  1 S  py               182     -0.432357  4 O  py         
    73      0.423191  2 O  pz               240     -0.412820  5 O  py         
   130     -0.398958  3 O  py                64     -0.372789  2 O  s          

 Vector   38  Occ=0.000000D+00  E= 4.437973D-01
              MO Center=  2.6D-03, -1.2D-03, -5.1D-01, r^2= 1.4D+01
   Bfn.  Coefficient  Atom+Function         Bfn.  Coefficient  Atom+Function  
  ----- ------------  ---------------      ----- ------------  ---------------
    74      1.919794  2 O  px               130     -1.671120  3 O  py         
   240      1.656724  5 O  py               129     -0.962600  3 O  px         
   239     -0.966130  5 O  px                71     -0.462986  2 O  px         
   127      0.400842  3 O  py               237     -0.401545  5 O  py         
   126      0.230280  3 O  px               236      0.229535  5 O  px         

 Vector   39  Occ=0.000000D+00  E= 4.618892D-01
              MO Center=  3.1D-01,  6.9D-02,  1.1D-01, r^2= 1.6D+01
   Bfn.  Coefficient  Atom+Function         Bfn.  Coefficient  Atom+Function  
  ----- ------------  ---------------      ----- ------------  ---------------
    19      4.727417  1 S  px                20      3.805607  1 S  py         
   239     -2.446923  5 O  px               129     -2.391563  3 O  px         
    74     -2.357625  2 O  px               184     -2.332428  4 O  px         
    16      2.131611  1 S  px                75     -1.963594  2 O  py         
   240     -1.952112  5 O  py               130     -1.874541  3 O  py         

 Vector   40  Occ=0.000000D+00  E= 4.619125D-01
              MO Center= -2.9D-01, -1.1D-01,  1.1D-01, r^2= 1.6D+01
   Bfn.  Coefficient  Atom+Function         Bfn.  Coefficient  Atom+Function  
  ----- ------------  ---------------      ----- ------------  ---------------
    20      4.720330  1 S  py                19     -3.806005  1 S  px         
    75     -2.447162  2 O  py               130     -2.396331  3 O  py         
   185     -2.332358  4 O  py               240     -2.336323  5 O  py         
    17      2.135409  1 S  py               129      1.974320  3 O  px         
   239      1.922951  5 O  px                74      1.894627  2 O  px         

 Vector   41  Occ=0.000000D+00  E= 4.623491D-01
              MO Center= -1.9D-02,  4.0D-02, -3.5D-02, r^2= 1.5D+01
   Bfn.  Coefficient  Atom+Function         Bfn.  Coefficient  Atom+Function  
  ----- ------------  ---------------      ----- ------------  ---------------
    21      5.979465  1 S  pz                 6      3.090666  1 S  s          
   186     -3.100645  4 O  pz                76     -3.029448  2 O  pz         
   131     -3.019552  3 O  pz               241     -3.019700  5 O  pz         
    18      2.539587  1 S  pz               173      2.117362  4 O  s          
   119     -1.663144  3 O  s                 59     -1.644487  1 S  fzzz       

 Vector   42  Occ=0.000000D+00  E= 4.714194D-01
              MO Center= -1.1D-02,  4.4D-04, -5.3D-01, r^2= 8.7D+00
   Bfn.  Coefficient  Atom+Function         Bfn.  Coefficient  Atom+Function  
  ----- ------------  ---------------      ----- ------------  ---------------
     6     15.193302  1 S  s                174     -7.547632  4 O  s          
    64     -7.428597  2 O  s                119     -7.440604  3 O  s          
   229     -7.454982  5 O  s                  5     -2.104194  1 S  s          
    39      1.933043  1 S  dzz               63      1.794463  2 O  s          
   118      1.789959  3 O  s                228      1.792171  5 O  s          

 Vector   43  Occ=0.000000D+00  E= 5.084211D-01
              MO Center= -1.9D-01,  3.3D-01, -3.0D-01, r^2= 7.8D+00
   Bfn.  Coefficient  Atom+Function         Bfn.  Coefficient  Atom+Function  
  ----- ------------  ---------------      ----- ------------  ---------------
    64      9.609157  2 O  s                 17     -7.446991  1 S  py         
   229     -6.917604  5 O  s                 75     -3.287075  2 O  py         
    38      2.342723  1 S  dyz              119     -2.308786  3 O  s          
    16     -2.083369  1 S  px               240     -1.793452  5 O  py         
   239     -1.710265  5 O  px                37     -1.611786  1 S  dyy        

 Vector   44  Occ=0.000000D+00  E= 5.084996D-01
              MO Center=  1.9D-01, -3.2D-01, -3.0D-01, r^2= 7.8D+00
   Bfn.  Coefficient  Atom+Function         Bfn.  Coefficient  Atom+Function  
  ----- ------------  ---------------      ----- ------------  ---------------
   119      9.620845  3 O  s                 16     -7.487180  1 S  px         
   229     -6.903559  5 O  s                 35      3.155810  1 S  dxy        
   129     -2.975864  3 O  px                64     -2.657616  2 O  s          
   239     -2.417022  5 O  px                36      2.334737  1 S  dxz        
    17      2.097553  1 S  py               130      1.431714  3 O  py         

 Vector   45  Occ=0.000000D+00  E= 5.098684D-01
              MO Center= -1.6D-03, -1.8D-02,  7.6D-01, r^2= 8.6D+00
   Bfn.  Coefficient  Atom+Function         Bfn.  Coefficient  Atom+Function  
  ----- ------------  ---------------      ----- ------------  ---------------
   174     14.182457  4 O  s                 18     -8.934787  1 S  pz         
   186     -4.576652  4 O  pz                 6     -3.212958  1 S  s          
    39     -2.998655  1 S  dzz              229     -2.659849  5 O  s          
   119     -2.632474  3 O  s                 64     -1.916487  2 O  s          
    59      1.670120  1 S  fzzz              52      1.620294  1 S  fxxz       

 Vector   46  Occ=0.000000D+00  E= 5.503097D-01
              MO Center= -2.5D-01,  2.2D-01, -2.3D-01, r^2= 7.6D+00
   Bfn.  Coefficient  Atom+Function         Bfn.  Coefficient  Atom+Function  
  ----- ------------  ---------------      ----- ------------  ---------------
    64      7.933963  2 O  s                229     -6.981494  5 O  s          
    17     -4.833855  1 S  py                75     -2.890555  2 O  py         
    16     -2.160266  1 S  px               239     -1.931256  5 O  px         
   240     -1.758875  5 O  py                58      1.482170  1 S  fyzz       
    51      1.454242  1 S  fxxy              56      1.451728  1 S  fyyy       

 Vector   47  Occ=0.000000D+00  E= 5.503990D-01
              MO Center=  2.3D-01, -2.1D-01, -2.3D-01, r^2= 7.6D+00
   Bfn.  Coefficient  Atom+Function         Bfn.  Coefficient  Atom+Function  
  ----- ------------  ---------------      ----- ------------  ---------------
   119      8.423936  3 O  s                229     -5.196891  5 O  s          
    16     -4.811530  1 S  px                64     -3.722020  2 O  s          
   129     -2.740232  3 O  px                17      2.177433  1 S  py         
   239     -1.992814  5 O  px                55      1.479796  1 S  fxzz       
   130      1.474639  3 O  py                50      1.450068  1 S  fxxx       

 Vector   48  Occ=0.000000D+00  E= 5.530639D-01
              MO Center=  1.1D-02, -1.2D-02,  1.3D-02, r^2= 7.5D+00
   Bfn.  Coefficient  Atom+Function         Bfn.  Coefficient  Atom+Function  
  ----- ------------  ---------------      ----- ------------  ---------------
     6      6.720854  1 S  s                174      6.033362  4 O  s          
   119     -5.873342  3 O  s                229     -5.620400  5 O  s          
    64     -5.494585  2 O  s                 18     -5.264377  1 S  pz         
   186     -3.009631  4 O  pz                 5     -2.400936  1 S  s          
    52      1.923470  1 S  fxxz              57      1.922500  1 S  fyyz       

 Vector   49  Occ=0.000000D+00  E= 5.678761D-01
              MO Center=  3.6D-03,  3.7D-03,  6.8D-02, r^2= 6.2D+00
   Bfn.  Coefficient  Atom+Function         Bfn.  Coefficient  Atom+Function  
  ----- ------------  ---------------      ----- ------------  ---------------
     6     12.960126  1 S  s                174     -8.554675  4 O  s          
     5     -5.485299  1 S  s                 64     -5.466071  2 O  s          
   119     -5.467500  3 O  s                229     -5.428748  5 O  s          
   173      3.601749  4 O  s                118      2.029657  3 O  s          
    63      2.018891  2 O  s                228      1.994913  5 O  s          

 Vector   50  Occ=0.000000D+00  E= 6.293777D-01
              MO Center=  2.9D-01, -5.1D-01,  4.4D-01, r^2= 6.6D+00
   Bfn.  Coefficient  Atom+Function         Bfn.  Coefficient  Atom+Function  
  ----- ------------  ---------------      ----- ------------  ---------------
    38      4.411159  1 S  dyz               64      4.352486  2 O  s          
    63      4.148208  2 O  s                229     -3.152940  5 O  s          
    37     -3.044175  1 S  dyy               34      3.021127  1 S  dxx        
   228     -3.015569  5 O  s                 72     -2.278232  2 O  py         
    51     -2.102336  1 S  fxxy              56     -2.103422  1 S  fyyy       

 Vector   51  Occ=0.000000D+00  E= 6.295978D-01
              MO Center= -2.9D-01,  5.1D-01,  4.4D-01, r^2= 6.6D+00
   Bfn.  Coefficient  Atom+Function         Bfn.  Coefficient  Atom+Function  
  ----- ------------  ---------------      ----- ------------  ---------------
    35      6.098444  1 S  dxy               36      4.384092  1 S  dxz        
   119      4.346947  3 O  s                118      4.134664  3 O  s          
   229     -3.191542  5 O  s                228     -3.051445  5 O  s          
    50     -2.098697  1 S  fxxx              53     -2.101893  1 S  fxyy       
   126     -2.009118  3 O  px                54     -1.931812  1 S  fxyz       

 Vector   52  Occ=0.000000D+00  E= 6.397361D-01
              MO Center= -1.6D-03,  1.9D-03, -7.4D-01, r^2= 6.3D+00
   Bfn.  Coefficient  Atom+Function         Bfn.  Coefficient  Atom+Function  
  ----- ------------  ---------------      ----- ------------  ---------------
   174      5.891760  4 O  s                173      4.745970  4 O  s          
    39     -4.437514  1 S  dzz               18     -2.824769  1 S  pz         
    34      2.453159  1 S  dxx               37      2.426352  1 S  dyy        
    59     -2.041187  1 S  fzzz             183     -2.041418  4 O  pz         
   118     -1.736061  3 O  s                228     -1.713680  5 O  s          

 Vector   53  Occ=0.000000D+00  E= 6.559156D-01
              MO Center=  2.8D-04, -2.1D-03,  6.9D-02, r^2= 9.5D+00
   Bfn.  Coefficient  Atom+Function         Bfn.  Coefficient  Atom+Function  
  ----- ------------  ---------------      ----- ------------  ---------------
     5     12.964978  1 S  s                174    -10.524007  4 O  s          
    39      8.908125  1 S  dzz               34      8.200131  1 S  dxx        
    37      8.182334  1 S  dyy              119     -8.220824  3 O  s          
    64     -8.162284  2 O  s                229     -8.177072  5 O  s          
     6      3.246159  1 S  s                186      2.844878  4 O  pz         

 Vector   54  Occ=0.000000D+00  E= 6.972728D-01
              MO Center= -3.3D-02, -6.6D-02,  1.3D-01, r^2= 8.4D+00
   Bfn.  Coefficient  Atom+Function         Bfn.  Coefficient  Atom+Function  
  ----- ------------  ---------------      ----- ------------  ---------------
    36      6.733758  1 S  dxz               35     -5.046819  1 S  dxy        
   181     -2.222918  4 O  px                71      1.944793  2 O  px         
   238      1.859758  5 O  pz                38      1.698792  1 S  dyz        
    16      1.635179  1 S  px                24      1.555752  1 S  dxz        
   127      1.463489  3 O  py               128     -1.391837  3 O  pz         

 Vector   55  Occ=0.000000D+00  E= 6.973758D-01
              MO Center=  3.6D-02,  6.0D-02,  1.2D-01, r^2= 8.4D+00
   Bfn.  Coefficient  Atom+Function         Bfn.  Coefficient  Atom+Function  
  ----- ------------  ---------------      ----- ------------  ---------------
    38      6.717683  1 S  dyz               37      2.566815  1 S  dyy        
    34     -2.518511  1 S  dxx              182     -2.225472  4 O  py         
    73     -1.875670  2 O  pz                36     -1.707997  1 S  dxz        
    17      1.589312  1 S  py               237      1.575841  5 O  py         
    26      1.551991  1 S  dyz              128      1.348844  3 O  pz         

 Vector   56  Occ=0.000000D+00  E= 7.347158D-01
              MO Center=  2.1D-01,  1.6D-01,  2.1D-01, r^2= 8.1D+00
   Bfn.  Coefficient  Atom+Function         Bfn.  Coefficient  Atom+Function  
  ----- ------------  ---------------      ----- ------------  ---------------
    18     17.337386  1 S  pz               174     -9.100881  4 O  s          
    16     -6.687611  1 S  px                64      5.481840  2 O  s          
   119      4.951849  3 O  s                 17     -4.538701  1 S  py         
    59     -4.238744  1 S  fzzz              52     -3.986911  1 S  fxxz       
    57     -3.922009  1 S  fyyz              39      2.773474  1 S  dzz        

 Vector   57  Occ=0.000000D+00  E= 7.348840D-01
              MO Center= -2.6D-01, -2.2D-01, -3.1D-01, r^2= 8.1D+00
   Bfn.  Coefficient  Atom+Function         Bfn.  Coefficient  Atom+Function  
  ----- ------------  ---------------      ----- ------------  ---------------
    16     17.321258  1 S  px               229      8.572047  5 O  s          
    18      7.033215  1 S  pz               119     -6.169690  3 O  s          
    55     -4.179501  1 S  fxzz              50     -4.079455  1 S  fxxx       
    53     -4.079217  1 S  fxyy              35     -4.055812  1 S  dxy        
    36     -3.847100  1 S  dxz              174     -3.681027  4 O  s          

 Vector   58  Occ=0.000000D+00  E= 7.349394D-01
              MO Center=  4.8D-02,  7.0D-02, -3.6D-01, r^2= 8.2D+00
   Bfn.  Coefficient  Atom+Function         Bfn.  Coefficient  Atom+Function  
  ----- ------------  ---------------      ----- ------------  ---------------
    17     18.051330  1 S  py                64     -8.010484  2 O  s          
   119      5.826439  3 O  s                229      4.719627  5 O  s          
    18      4.540433  1 S  pz                58     -4.348814  1 S  fyzz       
    56     -4.258081  1 S  fyyy              51     -4.212202  1 S  fxxy       
    38     -3.980452  1 S  dyz               34     -2.519196  1 S  dxx        

 Vector   59  Occ=0.000000D+00  E= 8.163427D-01
              MO Center=  5.6D-03,  6.6D-03,  3.6D-02, r^2= 4.2D+00
   Bfn.  Coefficient  Atom+Function         Bfn.  Coefficient  Atom+Function  
  ----- ------------  ---------------      ----- ------------  ---------------
    36      1.718921  1 S  dxz               35     -1.109575  1 S  dxy        
   201      1.028883  4 O  dxz               90     -1.017900  2 O  dxy        
    24      0.851885  1 S  dxz               16     -0.704776  1 S  px         
    23     -0.566568  1 S  dxy               38      0.555249  1 S  dyz        
   256      0.556471  5 O  dxz              147      0.487747  3 O  dyy        

 Vector   60  Occ=0.000000D+00  E= 8.164914D-01
              MO Center= -4.0D-03, -5.8D-03,  3.6D-02, r^2= 4.2D+00
   Bfn.  Coefficient  Atom+Function         Bfn.  Coefficient  Atom+Function  
  ----- ------------  ---------------      ----- ------------  ---------------
    38      1.709338  1 S  dyz              203      1.028536  4 O  dyz        
    26      0.848853  1 S  dyz               17     -0.721621  1 S  py         
    93      0.621437  2 O  dyz               36     -0.557080  1 S  dxz        
    34     -0.547654  1 S  dxx               37      0.550390  1 S  dyy        
   144     -0.517775  3 O  dxx              254     -0.510768  5 O  dxx        

 Vector   61  Occ=0.000000D+00  E= 9.535564D-01
              MO Center= -4.7D-01,  1.9D-01, -1.9D-01, r^2= 7.8D+00
   Bfn.  Coefficient  Atom+Function         Bfn.  Coefficient  Atom+Function  
  ----- ------------  ---------------      ----- ------------  ---------------
    17      5.410799  1 S  py               229      4.967681  5 O  s          
    64     -4.569299  2 O  s                 51     -4.134081  1 S  fxxy       
    56     -4.119595  1 S  fyyy             228     -3.712966  5 O  s          
    16      3.597772  1 S  px                63      3.378248  2 O  s          
    58     -3.093839  1 S  fyzz              50     -2.742899  1 S  fxxx       

 Vector   62  Occ=0.000000D+00  E= 9.537508D-01
              MO Center=  4.7D-01, -1.9D-01, -1.8D-01, r^2= 7.8D+00
   Bfn.  Coefficient  Atom+Function         Bfn.  Coefficient  Atom+Function  
  ----- ------------  ---------------      ----- ------------  ---------------
   119     -5.526677  3 O  s                 16      5.378387  1 S  px         
    50     -4.103684  1 S  fxxx              53     -4.083263  1 S  fxyy       
   118      4.091643  3 O  s                 17     -3.636649  1 S  py         
    64      3.083617  2 O  s                 55     -3.026240  1 S  fxzz       
    51      2.769319  1 S  fxxy              56      2.766019  1 S  fyyy       

 Vector   63  Occ=0.000000D+00  E= 9.619158D-01
              MO Center=  5.9D-01, -2.2D-01,  3.1D-01, r^2= 7.5D+00
   Bfn.  Coefficient  Atom+Function         Bfn.  Coefficient  Atom+Function  
  ----- ------------  ---------------      ----- ------------  ---------------
    55      3.380668  1 S  fxzz             119      2.557726  3 O  s          
    16     -2.309517  1 S  px                58     -2.317863  1 S  fyzz       
   201      1.614434  4 O  dxz              118     -1.545180  3 O  s          
    17      1.534926  1 S  py                64     -1.483485  2 O  s          
   144     -1.389316  3 O  dxx               50      1.343833  1 S  fxxx       

 Vector   64  Occ=0.000000D+00  E= 9.619748D-01
              MO Center= -5.9D-01,  2.1D-01,  3.1D-01, r^2= 7.5D+00
   Bfn.  Coefficient  Atom+Function         Bfn.  Coefficient  Atom+Function  
  ----- ------------  ---------------      ----- ------------  ---------------
    58      3.324014  1 S  fyzz              55      2.336795  1 S  fxzz       
   229     -2.320051  5 O  s                 17     -2.194480  1 S  py         
    64      2.065253  2 O  s                203      1.624876  4 O  dyz        
    16     -1.594569  1 S  px                92     -1.451621  2 O  dyy        
   228      1.406014  5 O  s                 51      1.270744  1 S  fxxy       

 Vector   65  Occ=0.000000D+00  E= 9.645063D-01
              MO Center=  1.0D-02, -5.2D-03,  1.0D+00, r^2= 7.7D+00
   Bfn.  Coefficient  Atom+Function         Bfn.  Coefficient  Atom+Function  
  ----- ------------  ---------------      ----- ------------  ---------------
   174      9.424857  4 O  s                 18     -8.417203  1 S  pz         
    52      5.722898  1 S  fxxz              57      5.690597  1 S  fyyz       
    59      5.413662  1 S  fzzz             173     -4.567037  4 O  s          
   204     -4.208974  4 O  dzz              183      3.422244  4 O  pz         
    12      2.652258  1 S  pz               119     -2.346992  3 O  s          

 Vector   66  Occ=0.000000D+00  E= 9.647985D-01
              MO Center= -6.4D-03,  2.5D-03, -8.9D-01, r^2= 7.2D+00
   Bfn.  Coefficient  Atom+Function         Bfn.  Coefficient  Atom+Function  
  ----- ------------  ---------------      ----- ------------  ---------------
    53      2.097227  1 S  fxyy              90      1.486410  2 O  dxy        
    74     -1.066547  2 O  px                91     -1.002022  2 O  dxz        
   240     -0.925880  5 O  py               130      0.912218  3 O  py         
   258     -0.860394  5 O  dyz              148      0.849371  3 O  dyz        
   255     -0.763476  5 O  dxy              145     -0.740893  3 O  dxy        

 Vector   67  Occ=0.000000D+00  E= 9.790509D-01
              MO Center= -2.1D-03,  9.4D-03, -9.7D-02, r^2= 9.9D+00
   Bfn.  Coefficient  Atom+Function         Bfn.  Coefficient  Atom+Function  
  ----- ------------  ---------------      ----- ------------  ---------------
     5     50.673325  1 S  s                173    -14.868151  4 O  s          
    63    -13.155006  2 O  s                118    -13.185669  3 O  s          
   228    -13.151034  5 O  s                174     12.877372  4 O  s          
     6    -12.583125  1 S  s                 64     11.947795  2 O  s          
   119     11.936263  3 O  s                229     11.926832  5 O  s          

 Vector   68  Occ=0.000000D+00  E= 9.862025D-01
              MO Center= -3.8D-03, -3.7D-03, -1.5D-01, r^2= 5.5D+00
   Bfn.  Coefficient  Atom+Function         Bfn.  Coefficient  Atom+Function  
  ----- ------------  ---------------      ----- ------------  ---------------
    53      1.479668  1 S  fxyy              91     -1.357431  2 O  dxz        
    71     -1.326232  2 O  px               258     -1.224791  5 O  dyz        
   148      1.211266  3 O  dyz              237     -1.184231  5 O  py         
   127      1.155392  3 O  py               256      0.692295  5 O  dxz        
   126      0.687151  3 O  px               236      0.686917  5 O  px         

 Vector   69  Occ=0.000000D+00  E= 9.888056D-01
              MO Center=  3.9D-02,  1.4D-01,  6.7D-03, r^2= 5.5D+00
   Bfn.  Coefficient  Atom+Function         Bfn.  Coefficient  Atom+Function  
  ----- ------------  ---------------      ----- ------------  ---------------
    58      1.586605  1 S  fyzz             182     -1.524095  4 O  py         
    73      1.348534  2 O  pz                93     -0.976355  2 O  dyz        
   128     -0.834556  3 O  pz               146      0.765354  3 O  dxz        
    52      0.756049  1 S  fxxz              57     -0.722835  1 S  fyyz       
    89      0.721330  2 O  dxx              199     -0.682270  4 O  dxx        

 Vector   70  Occ=0.000000D+00  E= 9.889328D-01
              MO Center= -3.9D-02, -1.4D-01,  4.3D-03, r^2= 5.5D+00
   Bfn.  Coefficient  Atom+Function         Bfn.  Coefficient  Atom+Function  
  ----- ------------  ---------------      ----- ------------  ---------------
    55      1.578727  1 S  fxzz              54      1.519944  1 S  fxyz       
   181     -1.523403  4 O  px               200     -1.354427  4 O  dxy        
   238     -1.261661  5 O  pz               128      1.084637  3 O  pz         
   255      0.799397  5 O  dxy              256     -0.709178  5 O  dxz        
   184      0.677654  4 O  px               145      0.646011  3 O  dxy        

 Vector   71  Occ=0.000000D+00  E= 1.006995D+00
              MO Center= -1.6D-03, -4.9D-02, -2.5D-01, r^2= 7.7D+00
   Bfn.  Coefficient  Atom+Function         Bfn.  Coefficient  Atom+Function  
  ----- ------------  ---------------      ----- ------------  ---------------
   229     -6.490201  5 O  s                119      5.999234  3 O  s          
    55      3.261304  1 S  fxzz              54     -3.056387  1 S  fxyz       
    16     -2.584622  1 S  px               239     -2.479847  5 O  px         
   129     -2.414286  3 O  px               201      2.119298  4 O  dxz        
    19      2.000579  1 S  px                50      1.971455  1 S  fxxx       

 Vector   72  Occ=0.000000D+00  E= 1.007074D+00
              MO Center=  3.2D-04,  6.4D-02, -2.4D-01, r^2= 7.7D+00
   Bfn.  Coefficient  Atom+Function         Bfn.  Coefficient  Atom+Function  
  ----- ------------  ---------------      ----- ------------  ---------------
    64      6.842455  2 O  s                119     -4.187226  3 O  s          
   229     -3.375899  5 O  s                 58      3.207967  1 S  fyzz       
    75     -2.636682  2 O  py                17     -2.522402  1 S  py         
   203      2.092885  4 O  dyz               56      2.081135  1 S  fyyy       
    57      2.025613  1 S  fyyz              20      1.977338  1 S  py         

 Vector   73  Occ=0.000000D+00  E= 1.007322D+00
              MO Center= -7.5D-03, -1.3D-02, -6.0D-02, r^2= 7.8D+00
   Bfn.  Coefficient  Atom+Function         Bfn.  Coefficient  Atom+Function  
  ----- ------------  ---------------      ----- ------------  ---------------
   174      8.704646  4 O  s                  5      4.273085  1 S  s          
   186     -3.142491  4 O  pz                52      3.082429  1 S  fxxz       
    64     -2.593821  2 O  s                 57      2.503012  1 S  fyyz       
    51     -2.471751  1 S  fxxy              18     -2.376408  1 S  pz         
    21      2.279341  1 S  pz               183      2.255226  4 O  pz         

 Vector   74  Occ=0.000000D+00  E= 1.028366D+00
              MO Center= -1.6D-01, -1.3D-01, -1.6D-01, r^2= 5.0D+00
   Bfn.  Coefficient  Atom+Function         Bfn.  Coefficient  Atom+Function  
  ----- ------------  ---------------      ----- ------------  ---------------
    64      2.245269  2 O  s                 17     -2.021273  1 S  py         
   119     -2.002033  3 O  s                 63      1.792153  2 O  s          
   118     -1.629558  3 O  s                 37     -1.266351  1 S  dyy        
    34      1.250895  1 S  dxx               72     -1.215630  2 O  py         
    35     -1.174267  1 S  dxy               73      1.179253  2 O  pz         

 Vector   75  Occ=0.000000D+00  E= 1.028438D+00
              MO Center=  1.6D-01,  1.3D-01, -1.5D-01, r^2= 5.0D+00
   Bfn.  Coefficient  Atom+Function         Bfn.  Coefficient  Atom+Function  
  ----- ------------  ---------------      ----- ------------  ---------------
    35      2.513271  1 S  dxy              229     -2.416434  5 O  s          
    16     -2.007029  1 S  px               228     -1.994838  5 O  s          
   119      1.409538  3 O  s                238     -1.291551  5 O  pz         
   236     -1.212439  5 O  px               118      1.082706  3 O  s          
    64      1.068876  2 O  s                 55     -1.037968  1 S  fxzz       

 Vector   76  Occ=0.000000D+00  E= 1.035018D+00
              MO Center=  7.3D-02, -9.0D-02,  3.6D-01, r^2= 6.3D+00
   Bfn.  Coefficient  Atom+Function         Bfn.  Coefficient  Atom+Function  
  ----- ------------  ---------------      ----- ------------  ---------------
    64      4.829590  2 O  s                 63      4.638628  2 O  s          
    17     -4.370191  1 S  py               229     -4.010656  5 O  s          
    72     -3.982205  2 O  py                38      3.844754  1 S  dyz        
   228     -3.723507  5 O  s                236     -2.967902  5 O  px         
    58     -2.767012  1 S  fyzz              56     -2.345832  1 S  fyyy       

 Vector   77  Occ=0.000000D+00  E= 1.035210D+00
              MO Center= -7.3D-02,  9.3D-02,  3.6D-01, r^2= 6.3D+00
   Bfn.  Coefficient  Atom+Function         Bfn.  Coefficient  Atom+Function  
  ----- ------------  ---------------      ----- ------------  ---------------
   119      5.087942  3 O  s                118      4.842700  3 O  s          
    35      4.563996  1 S  dxy               16     -4.365752  1 S  px         
    36      3.832194  1 S  dxz              126     -3.559233  3 O  px         
   229     -3.316760  5 O  s                228     -3.170036  5 O  s          
    55     -2.799344  1 S  fxzz              50     -2.353329  1 S  fxxx       

 Vector   78  Occ=0.000000D+00  E= 1.043305D+00
              MO Center= -2.0D-03,  6.3D-04, -5.0D-01, r^2= 6.2D+00
   Bfn.  Coefficient  Atom+Function         Bfn.  Coefficient  Atom+Function  
  ----- ------------  ---------------      ----- ------------  ---------------
   173      6.663685  4 O  s                174      5.886679  4 O  s          
    18     -5.745132  1 S  pz               183     -5.181388  4 O  pz         
    39     -4.161009  1 S  dzz               52     -3.559907  1 S  fxxz       
    57     -3.566847  1 S  fyyz              59     -2.708394  1 S  fzzz       
   118     -2.412023  3 O  s                 34      2.388657  1 S  dxx        

 Vector   79  Occ=0.000000D+00  E= 1.077057D+00
              MO Center=  1.2D-03,  3.5D-03, -1.7D-02, r^2= 7.0D+00
   Bfn.  Coefficient  Atom+Function         Bfn.  Coefficient  Atom+Function  
  ----- ------------  ---------------      ----- ------------  ---------------
     6     12.228339  1 S  s                  5     -9.575302  1 S  s          
    39     -6.061097  1 S  dzz               34     -5.366597  1 S  dxx        
    37     -5.358576  1 S  dyy              173      3.541104  4 O  s          
    63      3.156964  2 O  s                118      3.167683  3 O  s          
   228      3.165247  5 O  s                 22     -2.748668  1 S  dxx        

 Vector   80  Occ=0.000000D+00  E= 1.125401D+00
              MO Center=  1.3D-02,  1.0D-02,  1.7D-02, r^2= 6.7D+00
   Bfn.  Coefficient  Atom+Function         Bfn.  Coefficient  Atom+Function  
  ----- ------------  ---------------      ----- ------------  ---------------
    38      4.755272  1 S  dyz               36     -2.061033  1 S  dxz        
   182     -1.843222  4 O  py                34     -1.655305  1 S  dxx        
    37      1.656179  1 S  dyy               73     -1.656660  2 O  pz         
   237      1.621249  5 O  py               128      1.441431  3 O  pz         
    35      1.410622  1 S  dxy              126      1.145994  3 O  px         

 Vector   81  Occ=0.000000D+00  E= 1.125427D+00
              MO Center= -1.3D-02, -1.2D-02,  1.9D-02, r^2= 6.7D+00
   Bfn.  Coefficient  Atom+Function         Bfn.  Coefficient  Atom+Function  
  ----- ------------  ---------------      ----- ------------  ---------------
    36      4.755815  1 S  dxz               35     -3.294818  1 S  dxy        
    38      2.048084  1 S  dyz              181     -1.830845  4 O  px         
    71      1.780452  2 O  px               238      1.777225  5 O  pz         
   127      1.588523  3 O  py                24     -1.095995  1 S  dxz        
   128     -1.079315  3 O  pz                91     -1.072667  2 O  dxz        

 Vector   82  Occ=0.000000D+00  E= 1.144442D+00
              MO Center= -1.8D-01,  3.4D-02, -1.9D-01, r^2= 5.7D+00
   Bfn.  Coefficient  Atom+Function         Bfn.  Coefficient  Atom+Function  
  ----- ------------  ---------------      ----- ------------  ---------------
    54      4.599598  1 S  fxyz              58     -3.353677  1 S  fyzz       
    17      2.862754  1 S  py                57     -2.824586  1 S  fyyz       
    55     -2.792487  1 S  fxzz              52      2.751351  1 S  fxxz       
    11     -2.611688  1 S  py                16      2.377177  1 S  px         
    10     -2.154171  1 S  px               236     -1.964681  5 O  px         

 Vector   83  Occ=0.000000D+00  E= 1.144664D+00
              MO Center=  1.7D-01, -3.0D-02, -1.9D-01, r^2= 5.7D+00
   Bfn.  Coefficient  Atom+Function         Bfn.  Coefficient  Atom+Function  
  ----- ------------  ---------------      ----- ------------  ---------------
    54      5.556738  1 S  fxyz              55     -3.386658  1 S  fxzz       
    16      2.875163  1 S  px                58      2.772363  1 S  fyzz       
    10     -2.603906  1 S  px                17     -2.359905  1 S  py         
    52     -2.364571  1 S  fxxz              57      2.262435  1 S  fyyz       
    11      2.151428  1 S  py               126     -1.879917  3 O  px         

 Vector   84  Occ=0.000000D+00  E= 1.154668D+00
              MO Center=  2.1D-03,  6.9D-04,  1.2D-02, r^2= 5.6D+00
   Bfn.  Coefficient  Atom+Function         Bfn.  Coefficient  Atom+Function  
  ----- ------------  ---------------      ----- ------------  ---------------
     5      5.668727  1 S  s                 52     -5.389173  1 S  fxxz       
    57     -5.381187  1 S  fyyz              18      5.000156  1 S  pz         
   174     -4.655118  4 O  s                 39      3.427714  1 S  dzz        
   173     -2.883393  4 O  s                 12     -2.858913  1 S  pz         
    51      2.708914  1 S  fxxy              27      2.629857  1 S  dzz        

 Vector   85  Occ=0.000000D+00  E= 1.223130D+00
              MO Center=  3.1D-03, -3.2D-03,  2.2D-01, r^2= 6.0D+00
   Bfn.  Coefficient  Atom+Function         Bfn.  Coefficient  Atom+Function  
  ----- ------------  ---------------      ----- ------------  ---------------
     5     33.251533  1 S  s                173    -10.407012  4 O  s          
    63    -10.141770  2 O  s                118    -10.161021  3 O  s          
   228    -10.138982  5 O  s                174     -8.050473  4 O  s          
    51     -7.163404  1 S  fxxy              72      6.936870  2 O  py         
   183      6.287450  4 O  pz                57     -6.115038  1 S  fyyz       

 Vector   86  Occ=0.000000D+00  E= 1.259913D+00
              MO Center=  2.1D-01, -1.1D-01, -1.7D-01, r^2= 6.0D+00
   Bfn.  Coefficient  Atom+Function         Bfn.  Coefficient  Atom+Function  
  ----- ------------  ---------------      ----- ------------  ---------------
    16     23.629790  1 S  px                17    -14.406255  1 S  py         
   119    -11.358411  3 O  s                 35     -7.849676  1 S  dxy        
    55     -5.971024  1 S  fxzz              50     -5.940100  1 S  fxxx       
    53     -5.941000  1 S  fxyy              64      5.884972  2 O  s          
    36     -5.646684  1 S  dxz              229      5.411368  5 O  s          

 Vector   87  Occ=0.000000D+00  E= 1.259923D+00
              MO Center= -2.2D-01,  1.1D-01, -1.7D-01, r^2= 6.0D+00
   Bfn.  Coefficient  Atom+Function         Bfn.  Coefficient  Atom+Function  
  ----- ------------  ---------------      ----- ------------  ---------------
    17     23.608239  1 S  py                16     14.371274  1 S  px         
   229      9.966886  5 O  s                 64     -9.634118  2 O  s          
    51     -5.924913  1 S  fxxy              58     -5.949600  1 S  fyzz       
    56     -5.917437  1 S  fyyy              38     -5.689395  1 S  dyz        
    35     -4.801830  1 S  dxy               34     -3.945787  1 S  dxx        

 Vector   88  Occ=0.000000D+00  E= 1.263514D+00
              MO Center= -7.2D-04,  4.9D-03,  1.4D-01, r^2= 6.0D+00
   Bfn.  Coefficient  Atom+Function         Bfn.  Coefficient  Atom+Function  
  ----- ------------  ---------------      ----- ------------  ---------------
    18     28.872820  1 S  pz               174    -12.492720  4 O  s          
    59     -8.099323  1 S  fzzz              52     -6.402332  1 S  fxxz       
    57     -6.397733  1 S  fyyz              39      5.547571  1 S  dzz        
    64      5.009857  2 O  s                119      4.854350  3 O  s          
   229      4.863283  5 O  s                  5     -4.328972  1 S  s          

 Vector   89  Occ=0.000000D+00  E= 1.359910D+00
              MO Center=  7.6D-04,  1.1D-02, -3.4D-02, r^2= 5.4D+00
   Bfn.  Coefficient  Atom+Function         Bfn.  Coefficient  Atom+Function  
  ----- ------------  ---------------      ----- ------------  ---------------
    38      7.509175  1 S  dyz               26      4.907019  1 S  dyz        
   182     -3.590762  4 O  py                73     -3.413906  2 O  pz         
   237      3.031959  5 O  py               126      2.716602  3 O  px         
   236     -2.542799  5 O  px                37      2.231352  1 S  dyy        
    34     -2.216588  1 S  dxx              128      2.217236  3 O  pz         

 Vector   90  Occ=0.000000D+00  E= 1.359962D+00
              MO Center= -5.8D-03, -7.7D-03, -3.5D-02, r^2= 5.4D+00
   Bfn.  Coefficient  Atom+Function         Bfn.  Coefficient  Atom+Function  
  ----- ------------  ---------------      ----- ------------  ---------------
    36      7.539037  1 S  dxz               24      4.916947  1 S  dxz        
    35     -4.395054  1 S  dxy               71      4.086894  2 O  px         
   181     -3.571951  4 O  px               238      3.264064  5 O  pz         
   127      3.090262  3 O  py                23     -3.038564  1 S  dxy        
[...]
   Bfn.  Coefficient  Atom+Function         Bfn.  Coefficient  Atom+Function  
  ----- ------------  ---------------      ----- ------------  ---------------
   236     11.504138  5 O  px                16      9.089046  1 S  px         
   233      8.380154  5 O  px               126      7.800857  3 O  px         
   237      7.604938  5 O  py               226      7.229836  5 O  s          
   228      6.769694  5 O  s                127     -6.235511  3 O  py         
   123      6.035264  3 O  px               238      5.312111  5 O  pz         

 Vector  274  Occ=0.000000D+00  E= 1.670279D+01
              MO Center=  3.0D-01, -2.9D-01,  7.1D-01, r^2= 2.9D+00
   Bfn.  Coefficient  Atom+Function         Bfn.  Coefficient  Atom+Function  
  ----- ------------  ---------------      ----- ------------  ---------------
   183     14.272639  4 O  pz               180     10.035696  4 O  pz         
   126     -9.273806  3 O  px                18      8.285026  1 S  pz         
   171     -6.994375  4 O  s                173     -6.550654  4 O  s          
   123     -6.090472  3 O  px               217     -5.826570  4 O  fxxz       
   222     -5.790304  4 O  fyyz             212     -5.529699  4 O  fyyz       

 Vector  275  Occ=0.000000D+00  E= 1.736732D+01
              MO Center=  6.9D-01, -5.2D-01, -1.7D-01, r^2= 2.0D+00
   Bfn.  Coefficient  Atom+Function         Bfn.  Coefficient  Atom+Function  
  ----- ------------  ---------------      ----- ------------  ---------------
   126      9.954297  3 O  px               123      7.219666  3 O  px         
    16      6.668604  1 S  px               118      6.414852  3 O  s          
   127     -6.101835  3 O  py               144     -5.969537  3 O  dxx        
   183     -5.979817  4 O  pz               147     -5.078867  3 O  dyy        
   149     -4.651070  3 O  dzz              180     -4.322541  4 O  pz         

 Vector  276  Occ=0.000000D+00  E= 1.736733D+01
              MO Center= -5.9D-01,  2.1D-01, -4.3D-01, r^2= 2.3D+00
   Bfn.  Coefficient  Atom+Function         Bfn.  Coefficient  Atom+Function  
  ----- ------------  ---------------      ----- ------------  ---------------
   236      9.089911  5 O  px                72      8.639519  2 O  py         
    17      7.064464  1 S  py               233      6.395542  5 O  px         
    69      6.363518  2 O  py               228     -5.509135  5 O  s          
   254      5.354664  5 O  dxx               63      4.982420  2 O  s          
    92     -4.919671  2 O  dyy               73     -4.113184  2 O  pz         

 Vector  277  Occ=0.000000D+00  E= 1.736736D+01
              MO Center= -1.1D-01,  3.2D-01,  5.3D-01, r^2= 2.4D+00
   Bfn.  Coefficient  Atom+Function         Bfn.  Coefficient  Atom+Function  
  ----- ------------  ---------------      ----- ------------  ---------------
   183     10.747551  4 O  pz                72     -8.055227  2 O  py         
   180      7.771170  4 O  pz                18      6.902098  1 S  pz         
   204     -5.919607  4 O  dzz               69     -5.661949  2 O  py         
   173      5.616860  4 O  s                222     -4.474169  4 O  fyyz       
    92      4.451005  2 O  dyy              217     -4.410556  4 O  fxxz       

 Vector  278  Occ=0.000000D+00  E= 1.737424D+01
              MO Center=  4.2D-04, -8.8D-04, -2.2D-02, r^2= 2.7D+00
   Bfn.  Coefficient  Atom+Function         Bfn.  Coefficient  Atom+Function  
  ----- ------------  ---------------      ----- ------------  ---------------
     5     14.490416  1 S  s                 63      5.100898  2 O  s          
   118      5.111214  3 O  s                173      5.117344  4 O  s          
   228      5.106057  5 O  s                  6     -4.626025  1 S  s          
    61      3.794545  2 O  s                116      3.799407  3 O  s          
   171      3.802085  4 O  s                226      3.796915  5 O  s          

 Vector  279  Occ=0.000000D+00  E= 3.691360D+01
              MO Center= -3.3D-04,  4.1D-04, -2.4D-02, r^2= 2.9D+00
   Bfn.  Coefficient  Atom+Function         Bfn.  Coefficient  Atom+Function  
  ----- ------------  ---------------      ----- ------------  ---------------
     5    204.950994  1 S  s                  3    -67.524934  1 S  s          
    63    -50.517765  2 O  s                118    -50.520624  3 O  s          
   173    -50.523647  4 O  s                228    -50.518502  5 O  s          
     2    -46.889742  1 S  s                183     37.531496  4 O  pz         
    72     35.351532  2 O  py               126     30.665207  3 O  px         


 center of mass
 --------------
 x =  -0.00062110 y =   0.00077397 z =  -0.04445929

 moments of inertia (a.u.)
 ------------------
         357.496081465395           0.000299934775          -0.004390322683
           0.000299934775         357.497791363554           0.004635976471
          -0.004390322683           0.004635976471         357.505785925833

     Multipole analysis of the density
     ---------------------------------

     L   x y z        total         alpha         beta         nuclear
     -   - - -        -----         -----         ----         -------
     0   0 0 0     -2.000000    -25.000000    -25.000000     48.000000

     1   1 0 0      0.001228      0.015520      0.015520     -0.029813
     1   0 1 0     -0.001723     -0.019437     -0.019437      0.037150
     1   0 0 1      0.089207      1.111626      1.111626     -2.134046

     2   2 0 0    -39.200551    -64.302943    -64.302943     89.405335
     2   1 1 0      0.000038      0.000106      0.000106     -0.000173
     2   1 0 1     -0.000168     -0.001845     -0.001845      0.003521
     2   0 2 0    -39.200559    -64.302524    -64.302524     89.404490
     2   0 1 1      0.000249      0.002110      0.002110     -0.003970
     2   0 0 2    -39.203766    -64.349553    -64.349553     89.495340

 Line search: 
     step= 1.00 grad=-3.2D-06 hess= 1.5D-06 energy=   -698.724022 mode=accept  
 new step= 1.00                   predicted energy=   -698.724022

          --------
          Step   5
          --------


                         Geometry "geometry" -> "geometry"
                         ---------------------------------

 Output coordinates in angstroms (scale by  1.889725989 to convert to a.u.)

  No.       Tag          Charge          X              Y              Z
 ---- ---------------- ---------- -------------- -------------- --------------
    1 S                   16.0000    -0.00033402     0.00040839    -0.02351707
    2 O                    8.0000    -0.00091234     1.44351569    -0.53790438
    3 O                    8.0000     1.25137804    -0.72228747    -0.53147647
    4 O                    8.0000    -0.00134733     0.00430513     1.50845551
    5 O                    8.0000    -1.25042234    -0.72389274    -0.53320158

      Atomic Mass 
      ----------- 

      S                 31.972070
      O                 15.994910


 Effective nuclear repulsion energy (a.u.)     258.0748618991

            Nuclear Dipole moment (a.u.) 
            ----------------------------
        X                 Y               Z
 ---------------- ---------------- ----------------
    -0.0298126847     0.0371504075    -2.1340459175


                                 NWChem DFT Module
                                 -----------------




 Summary of "ao basis" -> "ao basis" (cartesian)
 ------------------------------------------------------------------------------
       Tag                 Description            Shells   Functions and Types
 ---------------- ------------------------------  ------  ---------------------
 S                        aug-cc-pVTZ               16       59   6s5p3d2f
 O                        aug-cc-pVTZ               14       55   5s4p3d2f



  The DFT is already converged 

         Total DFT energy =   -698.724022357781


            General Information
            -------------------
          SCF calculation type: DFT
          Wavefunction type:  closed shell.
          No. of atoms     :     5
          No. of electrons :    50
           Alpha electrons :    25
            Beta electrons :    25
          Charge           :    -2
          Spin multiplicity:     1
          Use of symmetry is: off; symmetry adaption is: off
          Maximum number of iterations: 100
          AO basis - number of functions:   279
                     number of shells:    72
          Convergence on energy requested:  1.00D-06
          Convergence on density requested:  1.00D-05
          Convergence on gradient requested:  5.00D-04

              XC Information
              --------------
          PerdewBurkeErnzerhof Exchange Functional  1.000          
            Perdew 1991 LDA Correlation Functional  1.000 local    
           PerdewBurkeErnz. Correlation Functional  1.000 non-local

             Grid Information
             ----------------
          Grid used for XC integration:  medium    
          Radial quadrature: Mura-Knowles        
          Angular quadrature: Lebedev. 
          Tag              B.-S. Rad. Rad. Pts. Rad. Cut. Ang. Pts.
          ---              ---------- --------- --------- ---------
          S                   1.00       88          10.0       590
          O                   0.60       49          11.0       434
          Grid pruning is: on 
          Number of quadrature shells:   284
          Spatial weights used:  Erf1

          Convergence Information
          -----------------------
          Convergence aids based upon iterative change in 
          total energy or number of iterations. 
          Levelshifting, if invoked, occurs when the 
          HOMO/LUMO gap drops below (HL_TOL):  1.00D-02
          DIIS, if invoked, will attempt to extrapolate 
          using up to (NFOCK): 10 stored Fock matrices.

                    Damping(40%)  Levelshifting(0.0)       DIIS
                  --------------- ------------------- ---------------
          dE  on:    start            ASAP                start   
          dE off:  100 iters        100 iters           100 iters 


      Screening Tolerance Information
      -------------------------------
          Density screening/tol_rho:  1.00D-10
          AO Gaussian exp screening on grid/accAOfunc:  14
          CD Gaussian exp screening on grid/accCDfunc:  20
          XC Gaussian exp screening on grid/accXCfunc:  20
          Schwarz screening/accCoul:  1.00D-08



                            NWChem DFT Gradient Module
                            --------------------------



  charge          =  -2.00
  wavefunction    = closed shell



                         DFT ENERGY GRADIENTS

    atom               coordinates                        gradient
                 x          y          z           x          y          z
   1 S      -0.000631   0.000772  -0.044441   -0.000003  -0.000007   0.000026
   2 O      -0.001724   2.727849  -1.016492    0.000001   0.000030  -0.000012
   3 O       2.364762  -1.364925  -1.004345    0.000018  -0.000009  -0.000000
   4 O      -0.002546   0.008136   2.850568    0.000005  -0.000003  -0.000006
   5 O      -2.362956  -1.367959  -1.007605   -0.000020  -0.000011  -0.000007

                 ----------------------------------------
                 |  Time  |  1-e(secs)   |  2-e(secs)   |
                 ----------------------------------------
                 |  CPU   |       0.01   |      11.54   |
                 ----------------------------------------
                 |  WALL  |       0.01   |      11.59   |
                 ----------------------------------------

  Step       Energy      Delta E   Gmax     Grms     Xrms     Xmax   Walltime
  ---- ---------------- -------- -------- -------- -------- -------- --------
@    5    -698.72402236 -1.8D-06  0.00003  0.00001  0.00085  0.00172    268.0
                                     ok       ok       ok       ok  


      ----------------------
      Optimization converged
      ----------------------


  Step       Energy      Delta E   Gmax     Grms     Xrms     Xmax   Walltime
  ---- ---------------- -------- -------- -------- -------- -------- --------
@    5    -698.72402236 -1.8D-06  0.00003  0.00001  0.00085  0.00172    268.0
                                     ok       ok       ok       ok  



                         Geometry "geometry" -> "geometry"
                         ---------------------------------

 Output coordinates in angstroms (scale by  1.889725989 to convert to a.u.)

  No.       Tag          Charge          X              Y              Z
 ---- ---------------- ---------- -------------- -------------- --------------
    1 S                   16.0000    -0.00033402     0.00040839    -0.02351707
    2 O                    8.0000    -0.00091234     1.44351569    -0.53790438
    3 O                    8.0000     1.25137804    -0.72228747    -0.53147647
    4 O                    8.0000    -0.00134733     0.00430513     1.50845551
    5 O                    8.0000    -1.25042234    -0.72389274    -0.53320158

      Atomic Mass 
      ----------- 

      S                 31.972070
      O                 15.994910


 Effective nuclear repulsion energy (a.u.)     258.0748618991

            Nuclear Dipole moment (a.u.) 
            ----------------------------
        X                 Y               Z
 ---------------- ---------------- ----------------
    -0.0298126847     0.0371504075    -2.1340459175

 ==============================================================================
                                internuclear distances
 ------------------------------------------------------------------------------
       center one      |      center two      | atomic units |  angstroms
 ------------------------------------------------------------------------------
    2 O                |   1 S                |     2.89514  |     1.53204
    3 O                |   1 S                |     2.89510  |     1.53202
    4 O                |   1 S                |     2.89502  |     1.53198
    5 O                |   1 S                |     2.89511  |     1.53203
 ------------------------------------------------------------------------------
                         number of included internuclear distances:          4
 ==============================================================================



 ==============================================================================
                                 internuclear angles
 ------------------------------------------------------------------------------
        center 1       |       center 2       |       center 3       |  degrees
 ------------------------------------------------------------------------------
    2 O                |   1 S                |   3 O                |   109.47
    2 O                |   1 S                |   4 O                |   109.47
    2 O                |   1 S                |   5 O                |   109.47
    3 O                |   1 S                |   4 O                |   109.47
    3 O                |   1 S                |   5 O                |   109.47
    4 O                |   1 S                |   5 O                |   109.47
 ------------------------------------------------------------------------------
                            number of included internuclear angles:          6
 ==============================================================================




 Task  times  cpu:      264.1s     wall:      267.9s


                                NWChem Input Module
                                -------------------


 Summary of allocated global arrays
-----------------------------------
  No active global arrays


MA_summarize_allocated_blocks: starting scan ...
MA_summarize_allocated_blocks: scan completed: 0 heap blocks, 0 stack blocks
MA usage statistics:

	allocation statistics:
					      heap	     stack
					      ----	     -----
	current number of blocks	         0	         0
	maximum number of blocks	        24	        53
	current total bytes		         0	         0
	maximum total bytes		 269966336	  66601848
	maximum total K-bytes		    269967	     66602
	maximum total M-bytes		       270	        67


                                     CITATION
                                     --------
                Please cite the following reference when publishing
                           results obtained with NWChem:

          E. Apra, E. J. Bylaska, W. A. de Jong, N. Govind, K. Kowalski,
       T. P. Straatsma, M. Valiev, H. J. J. van Dam, Y. Alexeev, J. Anchell,
       V. Anisimov, F. W. Aquino, R. Atta-Fynn, J. Autschbach, N. P. Bauman,
     J. C. Becca, D. E. Bernholdt, K. Bhaskaran-Nair, S. Bogatko, P. Borowski,
         J. Boschen, J. Brabec, A. Bruner, E. Cauet, Y. Chen, G. N. Chuev,
      C. J. Cramer, J. Daily, M. J. O. Deegan, T. H. Dunning Jr., M. Dupuis,
   K. G. Dyall, G. I. Fann, S. A. Fischer, A. Fonari, H. Fruchtl, L. Gagliardi,
      J. Garza, N. Gawande, S. Ghosh, K. Glaesemann, A. W. Gotz, J. Hammond,
       V. Helms, E. D. Hermes, K. Hirao, S. Hirata, M. Jacquelin, L. Jensen,
   B. G. Johnson, H. Jonsson, R. A. Kendall, M. Klemm, R. Kobayashi, V. Konkov,
      S. Krishnamoorthy, M. Krishnan, Z. Lin, R. D. Lins, R. J. Littlefield,
      A. J. Logsdail, K. Lopata, W. Ma, A. V. Marenich, J. Martin del Campo,
   D. Mejia-Rodriguez, J. E. Moore, J. M. Mullin, T. Nakajima, D. R. Nascimento,
    J. A. Nichols, P. J. Nichols, J. Nieplocha, A. Otero-de-la-Roza, B. Palmer,
    A. Panyala, T. Pirojsirikul, B. Peng, R. Peverati, J. Pittner, L. Pollack,
   R. M. Richard, P. Sadayappan, G. C. Schatz, W. A. Shelton, D. W. Silverstein,
   D. M. A. Smith, T. A. Soares, D. Song, M. Swart, H. L. Taylor, G. S. Thomas,
            V. Tipparaju, D. G. Truhlar, K. Tsemekhman, T. Van Voorhis,
      A. Vazquez-Mayagoitia, P. Verma, O. Villa, A. Vishnu, K. D. Vogiatzis,
        D. Wang, J. H. Weare, M. J. Williamson, T. L. Windus, K. Wolinski,
        A. T. Wong, Q. Wu, C. Yang, Q. Yu, M. Zacharias, Z. Zhang, Y. Zhao,
                                and R. J. Harrison
                        "NWChem: Past, present, and future
                         J. Chem. Phys. 152, 184102 (2020)
                               doi:10.1063/5.0004997

                                      AUTHORS
                                      -------
  E. Apra, E. J. Bylaska, N. Govind, K. Kowalski, M. Valiev, D. Mejia-Rodriguez,
       A. Kunitsa, N. P. Bauman, A. Panyala, W. A. de Jong, T. P. Straatsma,
   H. J. J. van Dam, D. Wang, T. L. Windus, J. Hammond, J. Autschbach, A. Woods,
    K. Bhaskaran-Nair, J. Brabec, K. Lopata, S. A. Fischer, S. Krishnamoorthy,
     M. Jacquelin, W. Ma, M. Klemm, O. Villa, Y. Chen, V. Anisimov, F. Aquino,
     S. Hirata, M. T. Hackler, E. Hermes, L. Jensen, J. E. Moore, J. C. Becca,
      V. Konjkov, T. Risthaus, M. Malagoli, A. Marenich, A. Otero-de-la-Roza,
        J. Mullin, P. Nichols, R. Peverati, J. Pittner, Y. Zhao, P.-D. Fan,
        A. Fonari, M. J. Williamson, R. J. Harrison, J. R. Rehr, M. Dupuis,
     D. Silverstein, D. M. A. Smith, J. Nieplocha, V. Tipparaju, M. Krishnan,
     B. E. Van Kuiken, A. Vazquez-Mayagoitia, M. Swart, Q. Wu, T. Van Voorhis,
     A. A. Auer, M. Nooijen, L. D. Crosby, E. Brown, G. Cisneros, G. I. Fann,
   H. Fruchtl, J. Garza, K. Hirao, R. A. Kendall, J. A. Nichols, K. Tsemekhman,
    K. Wolinski, J. Anchell, D. E. Bernholdt, P. Borowski, T. Clark, D. Clerc,
   H. Dachsel, M. J. O. Deegan, K. Dyall, D. Elwood, E. Glendening, M. Gutowski,
   A. C. Hess, J. Jaffe, B. G. Johnson, J. Ju, R. Kobayashi, R. Kutteh, Z. Lin,
   R. Littlefield, X. Long, B. Meng, T. Nakajima, S. Niu, L. Pollack, M. Rosing,
   K. Glaesemann, G. Sandrone, M. Stave, H. Taylor, G. Thomas, J. H. van Lenthe,
                               A. T. Wong, Z. Zhang.

 Total times  cpu:      264.1s     wall:      268.0s
