 argument  1 = 0e/mol.nwi
                                         
                                         


             Northwest Computational Chemistry Package (NWChem) 7.2.2
             --------------------------------------------------------


                    Environmental Molecular Sciences Laboratory
                       Pacific Northwest National Laboratory
                                Richland, WA 99352

                              Copyright (c) 1994-2022
                       Pacific Northwest National Laboratory
                            Battelle Memorial Institute

             NWChem is an open-source computational chemistry package
                        distributed under the terms of the
                      Educational Community License (ECL) 2.0
             A copy of the license is included with this distribution
                              in the LICENSE.TXT file

                                  ACKNOWLEDGMENT
                                  --------------

            This software and its documentation were developed at the
            EMSL at Pacific Northwest National Laboratory, a multiprogram
            national laboratory, operated for the U.S. Department of Energy
            by Battelle under Contract Number DE-AC05-76RL01830. Support
            for this work was provided by the Department of Energy Office
            of Biological and Environmental Research, Office of Basic
            Energy Sciences, and the Office of Advanced Scientific Computing.


           Job information
           ---------------

    hostname        = r222.ib.bridges2.psc.edu
    program         = nwchem
    date            = Tue Oct  1 15:28:01 2024

    compiled        = Mon_Mar_18_17:03:37_2024
    source          = /ocean/projects/pscstaff/mmadrid/nwchem-7.2.2
    nwchem branch   = 7.2.2
    nwchem revision = 74936fb9
    ga revision     = 5.8.0
    use scalapack   = F
    input           = 0e/mol.nwi
    prefix          = dft.
    data base       = .//dft.db
    status          = startup
    nproc           =       15
    time left       =     -1s



           Memory information
           ------------------

    heap     =   67108864 doubles =    512.0 Mbytes
    stack    =   67108861 doubles =    512.0 Mbytes
    global   =  134217728 doubles =   1024.0 Mbytes (distinct from heap & stack)
    total    =  268435453 doubles =   2048.0 Mbytes
    verify   = yes
    hardfail = no 


           Directory information
           ---------------------

  0 permanent = ./
  0 scratch   = /jet/home/hmt47/nwchem_scratch/




                                NWChem Input Module
                                -------------------


  library name resolved from: environment
  library file name is: </opt/packages/nwchem/nwchem7.2.2/share/nwchem/libraries/>
  


 Summary of "ao basis" -> "" (cartesian)
 ------------------------------------------------------------------------------
       Tag                 Description            Shells   Functions and Types
 ---------------- ------------------------------  ------  ---------------------
 *                        aug-cc-pVTZ                 on all atoms 


  pbe96 is a nonlocal functional; adding pw91lda local functional. 

 Scaling coordinates for geometry "geometry" by  1.889725989
 (inverse scale =  0.529177249)



                             Geometry "geometry" -> ""
                             -------------------------

 Output coordinates in angstroms (scale by  1.889725989 to convert to a.u.)

  No.       Tag          Charge          X              Y              Z
 ---- ---------------- ---------- -------------- -------------- --------------
    1 C                    6.0000     0.00452756     0.00338203    -0.10160101
    2 C                    6.0000    -0.04611664     0.00094233     1.54601470
    3 O                    8.0000     0.57581970     0.99153849    -0.58736281
    4 O                    8.0000    -0.55319814    -1.00462730    -0.56680626
    5 Cl                  17.0000     0.77484059     1.41934068     2.32871824
    6 Cl                  17.0000    -1.77833909     0.00563468     2.10892091
    7 Cl                  17.0000     0.74777702    -1.50347590     2.19536423

      Atomic Mass 
      ----------- 

      C                 12.000000
      O                 15.994910
      Cl                34.968850


 Effective nuclear repulsion energy (a.u.)     517.6000502444

            Nuclear Dipole moment (a.u.) 
            ----------------------------
        X                 Y               Z
 ---------------- ---------------- ----------------
    -8.3447033453    -2.6706996619   212.0162710171


            XYZ format geometry
            -------------------
     7
 geometry
 C                     0.00452756     0.00338203    -0.10160101
 C                    -0.04611664     0.00094233     1.54601470
 O                     0.57581970     0.99153849    -0.58736281
 O                    -0.55319814    -1.00462730    -0.56680626
 Cl                    0.77484059     1.41934068     2.32871824
 Cl                   -1.77833909     0.00563468     2.10892091
 Cl                    0.74777702    -1.50347590     2.19536423

 ==============================================================================
                                internuclear distances
 ------------------------------------------------------------------------------
       center one      |      center two      | atomic units |  angstroms
 ------------------------------------------------------------------------------
    2 C                |   1 C                |     3.11502  |     1.64840
    3 O                |   1 C                |     2.34417  |     1.24048
    4 O                |   1 C                |     2.34779  |     1.24240
    5 Cl               |   2 C                |     3.43205  |     1.81616
    6 Cl               |   2 C                |     3.44194  |     1.82140
    7 Cl               |   2 C                |     3.44075  |     1.82077
 ------------------------------------------------------------------------------
                         number of included internuclear distances:          6
 ==============================================================================



 ==============================================================================
                                 internuclear angles
 ------------------------------------------------------------------------------
        center 1       |       center 2       |       center 3       |  degrees
 ------------------------------------------------------------------------------
    2 C                |   1 C                |   3 O                |   114.00
    2 C                |   1 C                |   4 O                |   111.06
    3 O                |   1 C                |   4 O                |   134.94
    1 C                |   2 C                |   5 Cl               |   114.56
    1 C                |   2 C                |   6 Cl               |   109.76
    1 C                |   2 C                |   7 Cl               |   110.14
    5 Cl               |   2 C                |   6 Cl               |   107.14
    5 Cl               |   2 C                |   7 Cl               |   107.13
    6 Cl               |   2 C                |   7 Cl               |   107.85
 ------------------------------------------------------------------------------
                            number of included internuclear angles:          9
 ==============================================================================




                                 NWChem DFT Module
                                 -----------------


                      Basis "ao basis" -> "ao basis" (cartesian)
                      -----
  C (Carbon)
  ----------
            Exponent  Coefficients 
       -------------- ---------------------------------------------------------
  1 S  8.23600000E+03  0.000531
  1 S  1.23500000E+03  0.004108
  1 S  2.80800000E+02  0.021087
  1 S  7.92700000E+01  0.081853
  1 S  2.55900000E+01  0.234817
  1 S  8.99700000E+00  0.434401
  1 S  3.31900000E+00  0.346129
  1 S  3.64300000E-01 -0.008983

  2 S  8.23600000E+03 -0.000113
  2 S  1.23500000E+03 -0.000878
  2 S  2.80800000E+02 -0.004540
  2 S  7.92700000E+01 -0.018133
  2 S  2.55900000E+01 -0.055760
  2 S  8.99700000E+00 -0.126895
  2 S  3.31900000E+00 -0.170352
  2 S  3.64300000E-01  0.598684

  3 S  9.05900000E-01  1.000000

  4 S  1.28500000E-01  1.000000

  5 S  4.40200000E-02  1.000000

  6 P  1.87100000E+01  0.014031
  6 P  4.13300000E+00  0.086866
  6 P  1.20000000E+00  0.290216

  7 P  3.82700000E-01  1.000000

  8 P  1.20900000E-01  1.000000

  9 P  3.56900000E-02  1.000000

 10 D  1.09700000E+00  1.000000

 11 D  3.18000000E-01  1.000000

 12 D  1.00000000E-01  1.000000

 13 F  7.61000000E-01  1.000000

 14 F  2.68000000E-01  1.000000

  O (Oxygen)
  ----------
            Exponent  Coefficients 
       -------------- ---------------------------------------------------------
  1 S  1.53300000E+04  0.000508
  1 S  2.29900000E+03  0.003929
  1 S  5.22400000E+02  0.020243
  1 S  1.47300000E+02  0.079181
  1 S  4.75500000E+01  0.230687
  1 S  1.67600000E+01  0.433118
  1 S  6.20700000E+00  0.350260
  1 S  6.88200000E-01 -0.008154

  2 S  1.53300000E+04 -0.000115
  2 S  2.29900000E+03 -0.000895
  2 S  5.22400000E+02 -0.004636
  2 S  1.47300000E+02 -0.018724
  2 S  4.75500000E+01 -0.058463
  2 S  1.67600000E+01 -0.136463
  2 S  6.20700000E+00 -0.175740
  2 S  6.88200000E-01  0.603418

  3 S  1.75200000E+00  1.000000

  4 S  2.38400000E-01  1.000000

  5 S  7.37600000E-02  1.000000

  6 P  3.44600000E+01  0.015928
  6 P  7.74900000E+00  0.099740
  6 P  2.28000000E+00  0.310492

  7 P  7.15600000E-01  1.000000

  8 P  2.14000000E-01  1.000000

  9 P  5.97400000E-02  1.000000

 10 D  2.31400000E+00  1.000000

 11 D  6.45000000E-01  1.000000

 12 D  2.14000000E-01  1.000000

 13 F  1.42800000E+00  1.000000

 14 F  5.00000000E-01  1.000000

  Cl (Chlorine)
  -------------
            Exponent  Coefficients 
       -------------- ---------------------------------------------------------
  1 S  4.56100000E+05  0.000049
  1 S  6.83300000E+04  0.000383
  1 S  1.55500000E+04  0.002009
  1 S  4.40500000E+03  0.008386
  1 S  1.43900000E+03  0.029470
  1 S  5.20400000E+02  0.087833
  1 S  2.03100000E+02  0.211473
  1 S  8.39600000E+01  0.365364
  1 S  3.62000000E+01  0.340884
  1 S  1.58300000E+01  0.102133
  1 S  6.33400000E+00  0.003117
  1 S  2.69400000E+00  0.001058
  1 S  4.31300000E-01  0.000156

  2 S  4.56100000E+05 -0.000014
  2 S  6.83300000E+04 -0.000107
  2 S  1.55500000E+04 -0.000565
  2 S  4.40500000E+03 -0.002361
  2 S  1.43900000E+03 -0.008459
  2 S  5.20400000E+02 -0.025964
  2 S  2.03100000E+02 -0.068636
  2 S  8.39600000E+01 -0.141874
  2 S  3.62000000E+01 -0.199319
  2 S  1.58300000E+01 -0.019566
  2 S  6.33400000E+00  0.499741
  2 S  2.69400000E+00  0.563736
  2 S  4.31300000E-01 -0.008351

  3 S  4.56100000E+05  0.000004
  3 S  6.83300000E+04  0.000032
  3 S  1.55500000E+04  0.000171
  3 S  4.40500000E+03  0.000714
  3 S  1.43900000E+03  0.002567
  3 S  5.20400000E+02  0.007886
  3 S  2.03100000E+02  0.021087
  3 S  8.39600000E+01  0.044226
  3 S  3.62000000E+01  0.065167
  3 S  1.58300000E+01  0.006030
  3 S  6.33400000E+00 -0.206495
  3 S  2.69400000E+00 -0.405871
  3 S  4.31300000E-01  0.725661

  4 S  9.76800000E-01  1.000000

  5 S  1.62500000E-01  1.000000

  6 S  5.91000000E-02  1.000000

  7 P  6.63300000E+02  0.002404
  7 P  1.56800000E+02  0.019215
  7 P  4.99800000E+01  0.088510
  7 P  1.84200000E+01  0.256020
  7 P  7.24000000E+00  0.436927
  7 P  2.92200000E+00  0.350334
  7 P  3.81800000E-01 -0.004584

  8 P  6.63300000E+02 -0.000652
  8 P  1.56800000E+02 -0.005194
  8 P  4.99800000E+01 -0.024694
  8 P  1.84200000E+01 -0.072817
  8 P  7.24000000E+00 -0.134030
  8 P  2.92200000E+00 -0.094774
  8 P  3.81800000E-01  0.564667

  9 P  1.02200000E+00  1.000000

 10 P  1.30100000E-01  1.000000

 11 P  4.19000000E-02  1.000000

 12 D  1.04600000E+00  1.000000

 13 D  3.44000000E-01  1.000000

 14 D  1.35000000E-01  1.000000

 15 F  7.06000000E-01  1.000000

 16 F  3.12000000E-01  1.000000



 Summary of "ao basis" -> "ao basis" (cartesian)
 ------------------------------------------------------------------------------
       Tag                 Description            Shells   Functions and Types
 ---------------- ------------------------------  ------  ---------------------
 C                        aug-cc-pVTZ               14       55   5s4p3d2f
 O                        aug-cc-pVTZ               14       55   5s4p3d2f
 Cl                       aug-cc-pVTZ               16       59   6s5p3d2f




 Summary of "ao basis" -> "ao basis" (cartesian)
 ------------------------------------------------------------------------------
       Tag                 Description            Shells   Functions and Types
 ---------------- ------------------------------  ------  ---------------------
 C                        aug-cc-pVTZ               14       55   5s4p3d2f
 O                        aug-cc-pVTZ               14       55   5s4p3d2f
 Cl                       aug-cc-pVTZ               16       59   6s5p3d2f


  Caching 1-el integrals 

            General Information
            -------------------
          SCF calculation type: DFT
          Wavefunction type:  spin polarized.
          No. of atoms     :     7
          No. of electrons :    79
           Alpha electrons :    40
            Beta electrons :    39
          Charge           :     0
          Spin multiplicity:     2
          Use of symmetry is: off; symmetry adaption is: off
          Maximum number of iterations: 200
          AO basis - number of functions:   397
                     number of shells:   104
          Convergence on energy requested:  1.00D-06
          Convergence on density requested:  1.00D-05
          Convergence on gradient requested:  5.00D-04

              XC Information
              --------------
          PerdewBurkeErnzerhof Exchange Functional  1.000          
            Perdew 1991 LDA Correlation Functional  1.000 local    
           PerdewBurkeErnz. Correlation Functional  1.000 non-local

             Grid Information
             ----------------
          Grid used for XC integration:  medium    
          Radial quadrature: Mura-Knowles        
          Angular quadrature: Lebedev. 
          Tag              B.-S. Rad. Rad. Pts. Rad. Cut. Ang. Pts.
          ---              ---------- --------- --------- ---------
          C                   0.70       49          13.0       434
          O                   0.60       49          14.0       434
          Cl                  1.00       88          13.0       590
          Grid pruning is: on 
          Number of quadrature shells:   460
          Spatial weights used:  Erf1

          Convergence Information
          -----------------------
          Convergence aids based upon iterative change in 
          total energy or number of iterations. 
          Levelshifting, if invoked, occurs when the 
          HOMO/LUMO gap drops below (HL_TOL):  1.00D-02
          DIIS, if invoked, will attempt to extrapolate 
          using up to (NFOCK): 10 stored Fock matrices.

                    Damping(40%)  Levelshifting(0.0)       DIIS
                  --------------- ------------------- ---------------
          dE  on:    start            0.00D+00            start   
          dE off:  200 iters          0.00D+00          200 iters 


      Screening Tolerance Information
      -------------------------------
          Density screening/tol_rho:  1.00D-10
          AO Gaussian exp screening on grid/accAOfunc:  14
          CD Gaussian exp screening on grid/accCDfunc:  20
          XC Gaussian exp screening on grid/accXCfunc:  20
          Schwarz screening/accCoul:  1.00D-08


 Forcing the number of linearly dependent vectors to be  0

      Superposition of Atomic Density Guess
      -------------------------------------

 Sum of atomic energies:       -1603.36368040
   Time after variat. SCF:      0.6
   Time prior to 1st pass:      0.6

 Grid_pts file          = /jet/home/hmt47/nwchem_scratch//dft.gridpts.00
 Record size in doubles =  12289        No. of grid_pts per rec  =   3070
 Max. records in memory =      8        Max. recs in file   =  67550051


           Memory utilization after 1st SCF pass: 
           Heap Space remaining (MW):       33.45            33446440
          Stack Space remaining (MW):       67.11            67105540

   convergence    iter        energy       DeltaE   RMS-Dens  Diis-err    time
 ---------------- ----- ----------------- --------- --------- ---------  ------
 d=40,ls=0.0,diis     1  -1607.4890188835 -2.13D+03  4.57D-03  1.18D+01     4.0
                                                     4.63D-03  1.13D+01
 d=40,ls=0.0,diis     2  -1606.8332816298  6.56D-01  1.20D-02  1.99D+00    18.1
                                                     1.27D-02  1.89D+00
 d=40,ls=0.0,diis     3  -1603.0118053494  3.82D+00  6.97D-03  3.41D+00    31.5
                                                     7.28D-03  3.69D+00
 d=40,ls=0.0,diis     4  -1605.8394261903 -2.83D+00  2.44D-03  5.85D-01    45.4
                                                     2.68D-03  5.72D-01
 d=40,ls=0.0,diis     5  -1606.3651237157 -5.26D-01  1.12D-03  9.19D-02    58.8
                                                     1.75D-03  8.25D-02
 d=40,ls=0.0,diis     6  -1606.4370643858 -7.19D-02  4.91D-04  1.06D-01    72.5
                                                     9.80D-04  8.37D-02
 d=40,ls=0.0,diis     7  -1606.5033967408 -6.63D-02  1.85D-04  2.35D-02    86.3
                                                     9.36D-04  1.89D-02
  Resetting Diis
 d=40,ls=0.0,diis     8  -1606.5022900784  1.11D-03  1.17D-04  5.49D-02   100.4
                                                     1.09D-03  4.32D-02
 d=40,ls=0.0,diis     9  -1606.5305061983 -2.82D-02  2.14D-04  2.35D-03   114.2
                                                     6.49D-04  1.57D-03
 d=40,ls=0.0,diis    10  -1606.5274095042  3.10D-03  9.74D-05  1.06D-02   127.6
                                                     1.29D-03  9.68D-03
 d=40,ls=0.0,diis    11  -1606.5184753556  8.93D-03  8.38D-05  3.58D-02   141.3
                                                     8.89D-04  2.98D-02
 d=40,ls=0.0,diis    12  -1606.5344355188 -1.60D-02  3.09D-05  3.87D-04   155.0
                                                     2.71D-04  4.39D-04
 d=40,ls=0.0,diis    13  -1606.5349918037 -5.56D-04  1.25D-05  3.40D-04   169.0
                                                     1.35D-04  2.75D-04
 d=40,ls=0.0,diis    14  -1606.5349244357  6.74D-05  1.04D-05  9.97D-04   182.6
                                                     1.25D-04  8.07D-04
 d=40,ls=0.0,diis    15  -1606.5343061469  6.18D-04  3.55D-05  2.54D-03   196.3
                                                     1.02D-04  2.23D-03
 d=40,ls=0.0,diis    16  -1606.5334474326  8.59D-04  3.28D-05  4.48D-03   210.6
                                                     1.06D-04  4.10D-03
 d=40,ls=0.0,diis    17  -1606.5322053259  1.24D-03  1.41D-05  7.22D-03   224.3
                                                     2.95D-05  6.67D-03
 d=40,ls=0.0,diis    18  -1606.5318130958  3.92D-04  9.14D-06  8.11D-03   238.5
                                                     5.96D-05  7.50D-03
 d=40,ls=0.0,diis    19  -1606.5326713557 -8.58D-04  6.28D-06  6.21D-03   252.2
                                                     1.43D-04  5.77D-03
 d=40,ls=0.0,diis    20  -1606.5342795059 -1.61D-03  4.00D-06  2.67D-03   265.9
                                                     1.42D-04  2.49D-03
 d=40,ls=0.0,diis    21  -1606.5352120396 -9.33D-04  2.47D-06  6.28D-04   279.7
                                                     6.64D-05  5.88D-04
 d=40,ls=0.0,diis    22  -1606.5354267461 -2.15D-04  2.18D-06  1.63D-04   293.4
                                                     4.81D-05  1.52D-04
 d=40,ls=0.0,diis    23  -1606.5354957272 -6.90D-05  1.04D-06  1.35D-05   307.1
                                                     1.08D-05  1.25D-05
 d=40,ls=0.0,diis    24  -1606.5355012033 -5.48D-06  5.05D-07  2.84D-06   321.1
                                                     4.28D-06  2.62D-06
 d=40,ls=0.0,diis    25  -1606.5355023807 -1.18D-06  2.70D-07  8.04D-07   334.8
                                                     4.03D-07  7.42D-07
 d=40,ls=0.0,diis    26  -1606.5355025220 -1.41D-07  1.07D-07  7.18D-07   348.6
                                                     5.76D-07  6.66D-07


         Total DFT energy =    -1606.535502521980
      One electron energy =    -3245.079647529389
           Coulomb energy =     1232.650543322317
    Exchange-Corr. energy =     -111.706448559329
 Nuclear repulsion energy =      517.600050244421

 Numeric. integr. density =       79.000002555534

     Total iterative time =    348.1s



                    DFT Final Alpha Molecular Orbital Analysis
                    ------------------------------------------

 Vector    1  Occ=1.000000D+00  E=-1.007609D+02
              MO Center= -1.8D+00,  5.6D-03,  2.1D+00, r^2= 3.3D-03
   Bfn.  Coefficient  Atom+Function         Bfn.  Coefficient  Atom+Function  
  ----- ------------  ---------------      ----- ------------  ---------------
   280      1.002088  6 Cl s                284     -0.046580  6 Cl s          
   285     -0.026132  6 Cl s          

 Vector    2  Occ=1.000000D+00  E=-1.007605D+02
              MO Center=  7.5D-01, -1.5D+00,  2.2D+00, r^2= 3.3D-03
   Bfn.  Coefficient  Atom+Function         Bfn.  Coefficient  Atom+Function  
  ----- ------------  ---------------      ----- ------------  ---------------
   339      1.002086  7 Cl s                343     -0.046549  7 Cl s          
   344     -0.026092  7 Cl s          

 Vector    3  Occ=1.000000D+00  E=-1.007539D+02
              MO Center=  7.7D-01,  1.4D+00,  2.3D+00, r^2= 3.1D-03
   Bfn.  Coefficient  Atom+Function         Bfn.  Coefficient  Atom+Function  
  ----- ------------  ---------------      ----- ------------  ---------------
   221      1.002105  5 Cl s                225     -0.045204  5 Cl s          
    60      0.027884  2 C  s                 59     -0.027607  2 C  s          
   226     -0.027433  5 Cl s          

 Vector    4  Occ=1.000000D+00  E=-1.881707D+01
              MO Center=  5.8D-01,  9.9D-01, -5.9D-01, r^2= 1.6D-02
   Bfn.  Coefficient  Atom+Function         Bfn.  Coefficient  Atom+Function  
  ----- ------------  ---------------      ----- ------------  ---------------
   111      0.982651  3 O  s                 59      0.073065  2 C  s          
   113      0.068071  3 O  s                  4     -0.061845  1 C  s          
    60     -0.041224  2 C  s                 13     -0.038923  1 C  py         
    50      0.037182  1 C  fxyz              14      0.034966  1 C  pz         
    31     -0.031460  1 C  dxy              169      0.030054  4 O  s          

 Vector    5  Occ=1.000000D+00  E=-1.881512D+01
              MO Center= -5.5D-01, -1.0D+00, -5.7D-01, r^2= 1.6D-02
   Bfn.  Coefficient  Atom+Function         Bfn.  Coefficient  Atom+Function  
  ----- ------------  ---------------      ----- ------------  ---------------
   166      0.983106  4 O  s                168      0.068463  4 O  s          
   114      0.053530  3 O  s                169     -0.046093  4 O  s          
    14      0.039488  1 C  pz                54     -0.039245  1 C  fyzz       
    59     -0.037300  2 C  s                 50      0.036770  1 C  fxyz       
    31     -0.035113  1 C  dxy               53      0.034847  1 C  fyyz       

 Vector    6  Occ=1.000000D+00  E=-1.013715D+01
              MO Center= -4.6D-02,  9.3D-04,  1.5D+00, r^2= 2.8D-02
   Bfn.  Coefficient  Atom+Function         Bfn.  Coefficient  Atom+Function  
  ----- ------------  ---------------      ----- ------------  ---------------
    56      1.008833  2 C  s                 59     -0.264344  2 C  s          
     4      0.081977  1 C  s                 57      0.076630  2 C  s          
    58      0.066076  2 C  s                284      0.040292  6 Cl s          
   343      0.039237  7 Cl s                 69      0.034080  2 C  pz         
   169      0.030595  4 O  s                 14      0.029132  1 C  pz         

 Vector    7  Occ=1.000000D+00  E=-1.006487D+01
              MO Center=  4.5D-03,  3.4D-03, -1.0D-01, r^2= 2.8D-02
   Bfn.  Coefficient  Atom+Function         Bfn.  Coefficient  Atom+Function  
  ----- ------------  ---------------      ----- ------------  ---------------
     1      1.012440  1 C  s                  2      0.085021  1 C  s          
     3      0.068367  1 C  s                114     -0.062883  3 O  s          
   169     -0.056657  4 O  s                  4     -0.051341  1 C  s          
    27      0.038366  1 C  dyy               25      0.037551  1 C  dxy        
    33     -0.035611  1 C  dyy              115      0.033970  3 O  s          

 Vector    8  Occ=1.000000D+00  E=-9.243332D+00
              MO Center= -1.8D+00,  5.6D-03,  2.1D+00, r^2= 6.6D-02
   Bfn.  Coefficient  Atom+Function         Bfn.  Coefficient  Atom+Function  
  ----- ------------  ---------------      ----- ------------  ---------------
   281      0.899878  6 Cl s                283      0.112217  6 Cl s          
   282     -0.030293  6 Cl s          

 Vector    9  Occ=1.000000D+00  E=-9.242965D+00
              MO Center=  7.5D-01, -1.5D+00,  2.2D+00, r^2= 6.6D-02
   Bfn.  Coefficient  Atom+Function         Bfn.  Coefficient  Atom+Function  
  ----- ------------  ---------------      ----- ------------  ---------------
   340      0.899885  7 Cl s                342      0.112210  7 Cl s          
   341     -0.030282  7 Cl s                 59      0.025624  2 C  s          

 Vector   10  Occ=1.000000D+00  E=-9.236534D+00
              MO Center=  7.7D-01,  1.4D+00,  2.3D+00, r^2= 6.6D-02
   Bfn.  Coefficient  Atom+Function         Bfn.  Coefficient  Atom+Function  
  ----- ------------  ---------------      ----- ------------  ---------------
   222      0.899872  5 Cl s                224      0.112035  5 Cl s          
    59      0.042093  2 C  s                 60     -0.032891  2 C  s          
   223     -0.030267  5 Cl s          

 Vector   11  Occ=1.000000D+00  E=-7.070427D+00
              MO Center= -1.8D+00,  5.5D-03,  2.1D+00, r^2= 5.9D-02
   Bfn.  Coefficient  Atom+Function         Bfn.  Coefficient  Atom+Function  
  ----- ------------  ---------------      ----- ------------  ---------------
   286      0.945064  6 Cl px               288     -0.397387  6 Cl pz         
   289      0.110612  6 Cl px                59     -0.051267  2 C  s          
   291     -0.044614  6 Cl pz               322     -0.041747  6 Cl fxyy       
   324     -0.040848  6 Cl fxzz             295      0.040194  6 Cl px         
   319     -0.039917  6 Cl fxxx              60     -0.039198  2 C  s          

 Vector   12  Occ=1.000000D+00  E=-7.070061D+00
              MO Center=  7.5D-01, -1.5D+00,  2.2D+00, r^2= 5.9D-02
   Bfn.  Coefficient  Atom+Function         Bfn.  Coefficient  Atom+Function  
  ----- ------------  ---------------      ----- ------------  ---------------
   346      0.826722  7 Cl py               347     -0.442456  7 Cl pz         
   345     -0.414789  7 Cl px               349      0.095975  7 Cl py         
    59     -0.051112  2 C  s                348     -0.050321  7 Cl px         
   350     -0.049935  7 Cl pz                60     -0.038920  2 C  s          
   379     -0.035327  7 Cl fxxy             386     -0.035221  7 Cl fyzz       

 Vector   13  Occ=1.000000D+00  E=-7.063722D+00
              MO Center=  7.8D-01,  1.4D+00,  2.3D+00, r^2= 5.8D-02
   Bfn.  Coefficient  Atom+Function         Bfn.  Coefficient  Atom+Function  
  ----- ------------  ---------------      ----- ------------  ---------------
   228      0.777126  5 Cl py               229      0.501889  5 Cl pz         
   227      0.446674  5 Cl px               231      0.093871  5 Cl py         
    59      0.089628  2 C  s                232      0.058755  5 Cl pz         
   230      0.054128  5 Cl px               237      0.037645  5 Cl py         
   261     -0.033524  5 Cl fxxy             266     -0.033521  5 Cl fyyy       

 Vector   14  Occ=1.000000D+00  E=-7.058579D+00
              MO Center= -1.8D+00,  5.7D-03,  2.1D+00, r^2= 5.8D-02
   Bfn.  Coefficient  Atom+Function         Bfn.  Coefficient  Atom+Function  
  ----- ------------  ---------------      ----- ------------  ---------------
   288      0.861276  6 Cl pz               286      0.369604  6 Cl px         
   287     -0.363865  6 Cl py               291      0.065669  6 Cl pz         
   294      0.037990  6 Cl pz                87      0.031245  2 C  dxz        
   289      0.030324  6 Cl px                 4      0.028839  1 C  s          
   290     -0.027991  6 Cl py               326     -0.026667  6 Cl fyyz       

 Vector   15  Occ=1.000000D+00  E=-7.058199D+00
              MO Center=  7.5D-01, -1.5D+00,  2.2D+00, r^2= 5.8D-02
   Bfn.  Coefficient  Atom+Function         Bfn.  Coefficient  Atom+Function  
  ----- ------------  ---------------      ----- ------------  ---------------
   347      0.822071  7 Cl pz               345     -0.555080  7 Cl px         
   346      0.164226  7 Cl py               350      0.062630  7 Cl pz         
   348     -0.043583  7 Cl px               353      0.036262  7 Cl pz         
    89      0.033246  2 C  dyz                4      0.029260  1 C  s          
   380     -0.025493  7 Cl fxxz             385     -0.025230  7 Cl fyyz       

 Vector   16  Occ=1.000000D+00  E=-7.057284D+00
              MO Center= -1.8D+00,  5.6D-03,  2.1D+00, r^2= 5.8D-02
   Bfn.  Coefficient  Atom+Function         Bfn.  Coefficient  Atom+Function  
  ----- ------------  ---------------      ----- ------------  ---------------
   287      0.936798  6 Cl py               288      0.340555  6 Cl pz         
   286      0.128790  6 Cl px               290      0.071552  6 Cl py         
   293      0.041171  6 Cl py                86      0.036110  2 C  dxy        
   325     -0.029018  6 Cl fyyy             327     -0.028847  6 Cl fyzz       
    68      0.028484  2 C  py               320     -0.028395  6 Cl fxxy       

 Vector   17  Occ=1.000000D+00  E=-7.056918D+00
              MO Center=  7.5D-01, -1.5D+00,  2.2D+00, r^2= 5.8D-02
   Bfn.  Coefficient  Atom+Function         Bfn.  Coefficient  Atom+Function  
  ----- ------------  ---------------      ----- ------------  ---------------
   345      0.733799  7 Cl px               346      0.570995  7 Cl py         
   347      0.381565  7 Cl pz               348      0.056421  7 Cl px         
   349      0.042682  7 Cl py               351      0.032082  7 Cl px         
   350      0.029738  7 Cl pz                87     -0.026617  2 C  dxz        
   352      0.025499  7 Cl py         

 Vector   18  Occ=1.000000D+00  E=-7.051230D+00
              MO Center=  7.7D-01,  1.4D+00,  2.3D+00, r^2= 5.8D-02
   Bfn.  Coefficient  Atom+Function         Bfn.  Coefficient  Atom+Function  
  ----- ------------  ---------------      ----- ------------  ---------------
   229      0.874885  5 Cl pz               228     -0.388187  5 Cl py         
   227     -0.311212  5 Cl px               232      0.068640  5 Cl pz         
     4      0.045332  1 C  s                 89     -0.041535  2 C  dyz        
   235      0.037817  5 Cl pz               231     -0.031894  5 Cl py         
    69      0.029918  2 C  pz               262     -0.027899  5 Cl fxxz       

 Vector   19  Occ=1.000000D+00  E=-7.050778D+00
              MO Center=  7.7D-01,  1.4D+00,  2.3D+00, r^2= 5.8D-02
   Bfn.  Coefficient  Atom+Function         Bfn.  Coefficient  Atom+Function  
  ----- ------------  ---------------      ----- ------------  ---------------
   227      0.849578  5 Cl px               228     -0.531348  5 Cl py         
   229      0.066682  5 Cl pz               230      0.063566  5 Cl px         
   231     -0.039839  5 Cl py               233      0.037890  5 Cl px         
   260     -0.025665  5 Cl fxxx             263     -0.025694  5 Cl fxyy       
   265     -0.025590  5 Cl fxzz       

 Vector   20  Occ=1.000000D+00  E=-1.046364D+00
              MO Center=  1.2D-02,  3.8D-03, -3.9D-01, r^2= 1.2D+00
   Bfn.  Coefficient  Atom+Function         Bfn.  Coefficient  Atom+Function  
  ----- ------------  ---------------      ----- ------------  ---------------
   112      0.289162  3 O  s                167      0.285026  4 O  s          
     2      0.278754  1 C  s                114      0.145052  3 O  s          
   169      0.141526  4 O  s                170      0.086006  4 O  s          
   115      0.085535  3 O  s                113      0.081891  3 O  s          
     3      0.081065  1 C  s                168      0.080876  4 O  s          

 Vector   21  Occ=1.000000D+00  E=-9.750331D-01
              MO Center=  6.9D-03, -7.0D-03, -4.2D-01, r^2= 1.3D+00
   Bfn.  Coefficient  Atom+Function         Bfn.  Coefficient  Atom+Function  
  ----- ------------  ---------------      ----- ------------  ---------------
   112      0.334785  3 O  s                167     -0.335332  4 O  s          
   169     -0.304384  4 O  s                114      0.300969  3 O  s          
     7      0.148805  1 C  py               113      0.092368  3 O  s          
   168     -0.092340  4 O  s                  6      0.084186  1 C  px         
   172     -0.053235  4 O  py               175     -0.052588  4 O  py         

 Vector   22  Occ=1.000000D+00  E=-8.882233D-01
              MO Center= -9.0D-02, -4.8D-02,  1.9D+00, r^2= 2.2D+00
   Bfn.  Coefficient  Atom+Function         Bfn.  Coefficient  Atom+Function  
  ----- ------------  ---------------      ----- ------------  ---------------
    59      0.375755  2 C  s                 57      0.270811  2 C  s          
   282      0.268820  6 Cl s                341      0.267863  7 Cl s          
   223      0.252564  5 Cl s                284      0.141415  6 Cl s          
   343      0.141135  7 Cl s                225      0.135823  5 Cl s          
     4     -0.091529  1 C  s                 60     -0.073541  2 C  s          

 Vector   23  Occ=1.000000D+00  E=-7.982773D-01
              MO Center= -4.7D-01, -6.3D-01,  2.1D+00, r^2= 2.7D+00
   Bfn.  Coefficient  Atom+Function         Bfn.  Coefficient  Atom+Function  
  ----- ------------  ---------------      ----- ------------  ---------------
   282      0.436937  6 Cl s                341     -0.426792  7 Cl s          
   284      0.318522  6 Cl s                343     -0.312542  7 Cl s          
    61     -0.074311  2 C  px                64     -0.061491  2 C  px         
   285      0.056477  6 Cl s                344     -0.054140  7 Cl s          
    62      0.042321  2 C  py               283      0.040790  6 Cl s          

 Vector   24  Occ=1.000000D+00  E=-7.930197D-01
              MO Center=  3.3D-01,  6.0D-01,  2.2D+00, r^2= 2.6D+00
   Bfn.  Coefficient  Atom+Function         Bfn.  Coefficient  Atom+Function  
  ----- ------------  ---------------      ----- ------------  ---------------
   223      0.502368  5 Cl s                225      0.368300  5 Cl s          
   341     -0.255721  7 Cl s                282     -0.237250  6 Cl s          
   343     -0.181755  7 Cl s                284     -0.167583  6 Cl s          
    62      0.073974  2 C  py               226      0.068574  5 Cl s          
    65      0.057626  2 C  py               224      0.046905  5 Cl s          

 Vector   25  Occ=1.000000D+00  E=-6.531060D-01
              MO Center= -5.6D-02, -2.7D-02,  1.2D+00, r^2= 3.1D+00
   Bfn.  Coefficient  Atom+Function         Bfn.  Coefficient  Atom+Function  
  ----- ------------  ---------------      ----- ------------  ---------------
    59      0.407242  2 C  s                 57      0.285507  2 C  s          
   282     -0.212895  6 Cl s                341     -0.212453  7 Cl s          
   223     -0.208319  5 Cl s                284     -0.207332  6 Cl s          
   343     -0.207495  7 Cl s                225     -0.197990  5 Cl s          
     2      0.142852  1 C  s                  8      0.131746  1 C  pz         

 Vector   26  Occ=1.000000D+00  E=-5.319099D-01
              MO Center= -3.8D-02, -1.8D-03,  1.2D+00, r^2= 4.0D+00
   Bfn.  Coefficient  Atom+Function         Bfn.  Coefficient  Atom+Function  
  ----- ------------  ---------------      ----- ------------  ---------------
    59      0.478124  2 C  s                  2     -0.200947  1 C  s          
     4     -0.180290  1 C  s                 57      0.166858  2 C  s          
    63      0.163344  2 C  pz               284     -0.155447  6 Cl s          
   343     -0.155308  7 Cl s                225     -0.152254  5 Cl s          
    66      0.143728  2 C  pz               223     -0.140976  5 Cl s          

 Vector   27  Occ=1.000000D+00  E=-4.795232D-01
              MO Center=  1.1D-01,  1.7D-01, -1.2D-01, r^2= 2.8D+00
   Bfn.  Coefficient  Atom+Function         Bfn.  Coefficient  Atom+Function  
  ----- ------------  ---------------      ----- ------------  ---------------
   117     -0.179097  3 O  py               169     -0.178604  4 O  s          
     2      0.173932  1 C  s                112     -0.172697  3 O  s          
   120     -0.166880  3 O  py                 8     -0.158454  1 C  pz         
   114     -0.145325  3 O  s                172      0.145604  4 O  py         
   175      0.135155  4 O  py               167     -0.134065  4 O  s          

 Vector   28  Occ=1.000000D+00  E=-4.786588D-01
              MO Center= -2.6D-01, -3.2D-01,  1.4D+00, r^2= 3.6D+00
   Bfn.  Coefficient  Atom+Function         Bfn.  Coefficient  Atom+Function  
  ----- ------------  ---------------      ----- ------------  ---------------
    61      0.169003  2 C  px                64      0.146225  2 C  px         
   289     -0.139529  6 Cl px               349      0.132651  7 Cl py         
   284      0.131433  6 Cl s                282      0.129084  6 Cl s          
   292     -0.129208  6 Cl px               341     -0.124946  7 Cl s          
   343     -0.123423  7 Cl s                352      0.118853  7 Cl py         

 Vector   29  Occ=1.000000D+00  E=-4.720993D-01
              MO Center=  3.5D-02,  8.5D-02,  1.1D+00, r^2= 4.4D+00
   Bfn.  Coefficient  Atom+Function         Bfn.  Coefficient  Atom+Function  
  ----- ------------  ---------------      ----- ------------  ---------------
    62      0.159346  2 C  py               225     -0.145585  5 Cl s          
   167      0.130968  4 O  s                 65      0.127598  2 C  py         
   223     -0.127161  5 Cl s                 68      0.119497  2 C  py         
   231     -0.107095  5 Cl py               172     -0.104603  4 O  py         
   234     -0.102846  5 Cl py               232     -0.101357  5 Cl pz         

 Vector   30  Occ=1.000000D+00  E=-4.422660D-01
              MO Center=  7.3D-02,  1.3D-01,  2.9D-01, r^2= 4.1D+00
   Bfn.  Coefficient  Atom+Function         Bfn.  Coefficient  Atom+Function  
  ----- ------------  ---------------      ----- ------------  ---------------
     7      0.151740  1 C  py               172     -0.143943  4 O  py         
   117     -0.139606  3 O  py               175     -0.136793  4 O  py         
   120     -0.134500  3 O  py               112     -0.117150  3 O  s          
   167      0.115518  4 O  s                178     -0.114869  4 O  py         
   118      0.113567  3 O  pz               121      0.111069  3 O  pz         

 Vector   31  Occ=1.000000D+00  E=-4.249000D-01
              MO Center= -8.8D-02, -1.2D-01,  2.5D-01, r^2= 3.2D+00
   Bfn.  Coefficient  Atom+Function         Bfn.  Coefficient  Atom+Function  
  ----- ------------  ---------------      ----- ------------  ---------------
     6      0.173503  1 C  px               116      0.156040  3 O  px         
   171      0.155687  4 O  px               119      0.153138  3 O  px         
   174      0.153384  4 O  px                 9      0.144362  1 C  px         
   349     -0.100918  7 Cl py               289      0.099677  6 Cl px         
   292      0.098671  6 Cl px                 7     -0.097987  1 C  py         

 Vector   32  Occ=1.000000D+00  E=-3.586846D-01
              MO Center= -2.8D-01, -3.6D-01,  1.3D+00, r^2= 4.5D+00
   Bfn.  Coefficient  Atom+Function         Bfn.  Coefficient  Atom+Function  
  ----- ------------  ---------------      ----- ------------  ---------------
   291      0.202284  6 Cl pz               350      0.190254  7 Cl pz         
    59     -0.167324  2 C  s                294      0.158150  6 Cl pz         
   121      0.151988  3 O  pz               118      0.148819  3 O  pz         
   353      0.149087  7 Cl pz               176      0.138694  4 O  pz         
   173      0.136736  4 O  pz               348     -0.118534  7 Cl px         

 Vector   33  Occ=1.000000D+00  E=-3.458899D-01
              MO Center= -5.3D-02,  2.0D-01,  2.0D+00, r^2= 4.2D+00
   Bfn.  Coefficient  Atom+Function         Bfn.  Coefficient  Atom+Function  
  ----- ------------  ---------------      ----- ------------  ---------------
   230      0.210776  5 Cl px               350      0.179823  7 Cl pz         
   291     -0.172068  6 Cl pz               233      0.159586  5 Cl px         
   290     -0.148998  6 Cl py               353      0.144262  7 Cl pz         
   294     -0.136668  6 Cl pz               231     -0.119019  5 Cl py         
   293     -0.114345  6 Cl py               236      0.102959  5 Cl px         

 Vector   34  Occ=1.000000D+00  E=-3.436127D-01
              MO Center=  9.1D-02,  4.3D-02,  2.0D+00, r^2= 4.1D+00
   Bfn.  Coefficient  Atom+Function         Bfn.  Coefficient  Atom+Function  
  ----- ------------  ---------------      ----- ------------  ---------------
   232      0.248312  5 Cl pz               235      0.199763  5 Cl pz         
   290      0.191549  6 Cl py               348      0.180834  7 Cl px         
   293      0.147461  6 Cl py               351      0.138648  7 Cl px         
   349      0.125342  7 Cl py                59     -0.118844  2 C  s          
   238      0.113187  5 Cl pz               352      0.097479  7 Cl py         

 Vector   35  Occ=1.000000D+00  E=-3.219794D-01
              MO Center=  4.0D-02,  1.1D-01,  1.2D+00, r^2= 4.9D+00
   Bfn.  Coefficient  Atom+Function         Bfn.  Coefficient  Atom+Function  
  ----- ------------  ---------------      ----- ------------  ---------------
   231     -0.142528  5 Cl py               232      0.139586  5 Cl pz         
   173      0.138389  4 O  pz               176      0.138620  4 O  pz         
   234     -0.134292  5 Cl py               349     -0.129239  7 Cl py         
   121     -0.125058  3 O  pz               290     -0.125196  6 Cl py         
   118     -0.123228  3 O  pz               352     -0.113097  7 Cl py         

 Vector   36  Occ=1.000000D+00  E=-3.156457D-01
              MO Center= -2.7D-01, -3.2D-01,  1.9D+00, r^2= 4.4D+00
   Bfn.  Coefficient  Atom+Function         Bfn.  Coefficient  Atom+Function  
  ----- ------------  ---------------      ----- ------------  ---------------
   348      0.192464  7 Cl px               291      0.188039  6 Cl pz         
   350     -0.170798  7 Cl pz               351      0.157973  7 Cl px         
   294      0.136729  6 Cl pz               290     -0.135809  6 Cl py         
   230      0.132185  5 Cl px               289      0.129853  6 Cl px         
   292      0.123613  6 Cl px               353     -0.122479  7 Cl pz         

 Vector   37  Occ=1.000000D+00  E=-3.079262D-01
              MO Center= -1.1D-01, -1.8D-01, -1.2D-01, r^2= 3.2D+00
   Bfn.  Coefficient  Atom+Function         Bfn.  Coefficient  Atom+Function  
  ----- ------------  ---------------      ----- ------------  ---------------
   174      0.242903  4 O  px               171      0.239575  4 O  px         
   119     -0.212291  3 O  px               116     -0.209023  3 O  px         
   177      0.147272  4 O  px               175     -0.135517  4 O  py         
   172     -0.133608  4 O  py               122     -0.129559  3 O  px         
   120      0.122223  3 O  py               117      0.120392  3 O  py         

 Vector   38  Occ=1.000000D+00  E=-2.994401D-01
              MO Center= -4.7D-02, -4.1D-02,  6.8D-01, r^2= 4.3D+00
   Bfn.  Coefficient  Atom+Function         Bfn.  Coefficient  Atom+Function  
  ----- ------------  ---------------      ----- ------------  ---------------
   121      0.205676  3 O  pz               118      0.204323  3 O  pz         
   173      0.188655  4 O  pz               176      0.189437  4 O  pz         
    63      0.158720  2 C  pz               291     -0.148762  6 Cl pz         
   350     -0.147682  7 Cl pz                69      0.142267  2 C  pz         
    66      0.139332  2 C  pz               124      0.133687  3 O  pz         

 Vector   39  Occ=1.000000D+00  E=-2.978328D-01
              MO Center= -1.3D-02,  1.6D-01,  2.2D+00, r^2= 4.1D+00
   Bfn.  Coefficient  Atom+Function         Bfn.  Coefficient  Atom+Function  
  ----- ------------  ---------------      ----- ------------  ---------------
   230      0.248723  5 Cl px               290      0.240873  6 Cl py         
   348     -0.190753  7 Cl px               233      0.188396  5 Cl px         
   293      0.182320  6 Cl py               236      0.151915  5 Cl px         
   296      0.149743  6 Cl py               351     -0.142901  7 Cl px         
   231     -0.141914  5 Cl py               349     -0.133677  7 Cl py         

 Vector   40  Occ=1.000000D+00  E=-2.919142D-01
              MO Center=  1.6D-01,  2.3D-01,  6.6D-01, r^2= 4.6D+00
   Bfn.  Coefficient  Atom+Function         Bfn.  Coefficient  Atom+Function  
  ----- ------------  ---------------      ----- ------------  ---------------
   232      0.202867  5 Cl pz               176     -0.185502  4 O  pz         
   173     -0.181946  4 O  pz               121      0.177101  3 O  pz         
   118      0.175150  3 O  pz               235      0.153247  5 Cl pz         
   120      0.129651  3 O  py               179     -0.125643  4 O  pz         
   117      0.123152  3 O  py               124      0.123231  3 O  pz         

 Vector   41  Occ=0.000000D+00  E=-1.145240D-01
              MO Center= -2.0D-01, -1.2D-01,  2.1D+00, r^2= 4.2D+00
   Bfn.  Coefficient  Atom+Function         Bfn.  Coefficient  Atom+Function  
  ----- ------------  ---------------      ----- ------------  ---------------
    59      1.757374  2 C  s                 60     -0.777636  2 C  s          
     4     -0.544883  1 C  s                 57      0.350260  2 C  s          
   295     -0.344465  6 Cl px               355     -0.296367  7 Cl py         
   284     -0.286069  6 Cl s                343     -0.278705  7 Cl s          
   237      0.270258  5 Cl py               225     -0.258044  5 Cl s          

 Vector   42  Occ=0.000000D+00  E=-1.096537D-01
              MO Center= -1.3D-01, -2.5D-01,  1.2D+00, r^2= 4.1D+00
   Bfn.  Coefficient  Atom+Function         Bfn.  Coefficient  Atom+Function  
  ----- ------------  ---------------      ----- ------------  ---------------
    64      0.223924  2 C  px                61      0.215248  2 C  px         
     9      0.166335  1 C  px                87     -0.166634  2 C  dxz        
   349     -0.154250  7 Cl py                 6      0.152079  1 C  px         
   289      0.140330  6 Cl px                65     -0.129351  2 C  py         
   119     -0.128560  3 O  px                62     -0.124440  2 C  py         

 Vector   43  Occ=0.000000D+00  E=-8.093549D-02
              MO Center=  2.3D-01,  4.7D-01,  2.0D+00, r^2= 3.7D+00
   Bfn.  Coefficient  Atom+Function         Bfn.  Coefficient  Atom+Function  
  ----- ------------  ---------------      ----- ------------  ---------------
    65      0.312954  2 C  py                62      0.288862  2 C  py         
    86     -0.216674  2 C  dxy               59      0.204707  2 C  s          
   231      0.190726  5 Cl py                64      0.175053  2 C  px         
   223     -0.164436  5 Cl s                 61      0.162239  2 C  px         
    14     -0.157691  1 C  pz               240      0.155221  5 Cl py         

 Vector   44  Occ=0.000000D+00  E=-2.715053D-02
              MO Center= -1.6D-01, -2.1D-01,  6.5D-01, r^2= 4.4D+00
   Bfn.  Coefficient  Atom+Function         Bfn.  Coefficient  Atom+Function  
  ----- ------------  ---------------      ----- ------------  ---------------
   285      0.367947  6 Cl s                344     -0.312747  7 Cl s          
   298      0.278663  6 Cl px                 9     -0.265420  1 C  px         
   358     -0.255177  7 Cl py                 6     -0.247578  1 C  px         
    64      0.243417  2 C  px                87      0.235629  2 C  dxz        
    12     -0.203565  1 C  px                61      0.199123  2 C  px         

 Vector   45  Occ=0.000000D+00  E=-1.577851D-02
              MO Center= -1.1D-01, -9.8D-02,  1.7D+00, r^2= 1.5D+01
   Bfn.  Coefficient  Atom+Function         Bfn.  Coefficient  Atom+Function  
  ----- ------------  ---------------      ----- ------------  ---------------
    60      9.289289  2 C  s                285     -2.690455  6 Cl s          
   344     -2.695065  7 Cl s                226     -2.586458  5 Cl s          
    59     -2.551448  2 C  s                  4      1.453394  1 C  s          
   115     -1.389537  3 O  s                170     -1.121931  4 O  s          
    72      0.930976  2 C  pz                85     -0.764179  2 C  dxx        

 Vector   46  Occ=0.000000D+00  E= 7.950801D-03
              MO Center= -2.3D-02,  3.1D-02,  1.3D+00, r^2= 1.6D+01
   Bfn.  Coefficient  Atom+Function         Bfn.  Coefficient  Atom+Function  
  ----- ------------  ---------------      ----- ------------  ---------------
     5      2.278701  1 C  s                 59      1.439887  2 C  s          
    17      1.407194  1 C  pz               285     -1.257483  6 Cl s          
    69      1.237128  2 C  pz               344     -1.226860  7 Cl s          
   226     -1.181690  5 Cl s                 72      0.869393  2 C  pz         
    14      0.786502  1 C  pz               225     -0.727618  5 Cl s          

 Vector   47  Occ=0.000000D+00  E= 1.638437D-02
              MO Center= -2.2D-01, -2.4D-01,  1.9D+00, r^2= 1.8D+01
   Bfn.  Coefficient  Atom+Function         Bfn.  Coefficient  Atom+Function  
  ----- ------------  ---------------      ----- ------------  ---------------
   285      2.490786  6 Cl s                344     -2.295222  7 Cl s          
    70      1.051262  2 C  px               298      0.900095  6 Cl px         
   358     -0.700432  7 Cl py                71     -0.569832  2 C  py         
   357      0.478361  7 Cl px                15      0.464971  1 C  px         
   295      0.436149  6 Cl px               355     -0.427844  7 Cl py         

 Vector   48  Occ=0.000000D+00  E= 1.948686D-02
              MO Center=  8.7D-02,  2.3D-01,  2.2D+00, r^2= 1.9D+01
   Bfn.  Coefficient  Atom+Function         Bfn.  Coefficient  Atom+Function  
  ----- ------------  ---------------      ----- ------------  ---------------
   226      3.136237  5 Cl s                344     -2.205200  7 Cl s          
   285     -2.058398  6 Cl s                 71     -1.741036  2 C  py         
    60      1.258818  2 C  s                170     -1.085391  4 O  s          
    70     -0.960371  2 C  px                72     -0.839293  2 C  pz         
   240     -0.799421  5 Cl py                17      0.563895  1 C  pz         

 Vector   49  Occ=0.000000D+00  E= 4.663901D-02
              MO Center= -3.1D-01, -4.9D-01, -2.1D-01, r^2= 1.3D+01
   Bfn.  Coefficient  Atom+Function         Bfn.  Coefficient  Atom+Function  
  ----- ------------  ---------------      ----- ------------  ---------------
    60     20.272253  2 C  s                  5    -14.829947  1 C  s          
    59     -5.614676  2 C  s                 72     -4.448130  2 C  pz         
    17     -3.832092  1 C  pz               226     -2.720600  5 Cl s          
     4      2.405311  1 C  s                 90     -1.949518  2 C  dzz        
    85     -1.718210  2 C  dxx               35      1.598465  1 C  dzz        

 Vector   50  Occ=0.000000D+00  E= 4.922632D-02
              MO Center= -6.7D-02, -1.5D-01,  1.0D+00, r^2= 1.8D+01
   Bfn.  Coefficient  Atom+Function         Bfn.  Coefficient  Atom+Function  
  ----- ------------  ---------------      ----- ------------  ---------------
    70     -2.067147  2 C  px                15      2.037074  1 C  px         
    60      1.957609  2 C  s                285     -1.895049  6 Cl s          
   344      1.404719  7 Cl s                  5     -1.348974  1 C  s          
    87      1.320596  2 C  dxz               71      1.116449  2 C  py         
    16     -1.107979  1 C  py               300      0.709007  6 Cl pz         

 Vector   51  Occ=0.000000D+00  E= 4.964101D-02
              MO Center=  1.1D-01,  3.2D-01,  1.6D+00, r^2= 1.6D+01
   Bfn.  Coefficient  Atom+Function         Bfn.  Coefficient  Atom+Function  
  ----- ------------  ---------------      ----- ------------  ---------------
    60     12.854430  2 C  s                  5     -8.634663  1 C  s          
    59     -3.988512  2 C  s                 72     -3.862257  2 C  pz         
   344     -2.542212  7 Cl s                 71     -2.501066  2 C  py         
   285     -2.289934  6 Cl s                 16      2.146907  1 C  py         
   170      1.728827  4 O  s                 85     -1.648397  2 C  dxx        

 Vector   52  Occ=0.000000D+00  E= 5.330214D-02
              MO Center=  6.2D-02,  1.4D-01,  6.2D-01, r^2= 1.9D+01
   Bfn.  Coefficient  Atom+Function         Bfn.  Coefficient  Atom+Function  
  ----- ------------  ---------------      ----- ------------  ---------------
    60      5.908827  2 C  s                  5     -3.255617  1 C  s          
   115      2.561056  3 O  s                226     -1.857791  5 Cl s          
    59     -1.837612  2 C  s                  4     -1.722902  1 C  s          
    69     -1.656049  2 C  pz                16     -1.638573  1 C  py         
    17      1.550488  1 C  pz                68      1.523925  2 C  py         

 Vector   53  Occ=0.000000D+00  E= 5.737673D-02
              MO Center=  7.6D-02,  2.4D-01,  1.9D+00, r^2= 1.8D+01
   Bfn.  Coefficient  Atom+Function         Bfn.  Coefficient  Atom+Function  
  ----- ------------  ---------------      ----- ------------  ---------------
    60     -3.580806  2 C  s                  5      3.389912  1 C  s          
   170     -2.890507  4 O  s                115     -2.575339  3 O  s          
    71      1.903043  2 C  py                89      1.893831  2 C  dyz        
    86     -1.745913  2 C  dxy                4      1.614815  1 C  s          
    33      1.484915  1 C  dyy               68     -1.287877  2 C  py         

 Vector   54  Occ=0.000000D+00  E= 6.150034D-02
              MO Center= -2.0D-02,  6.0D-02,  2.0D+00, r^2= 1.7D+01
   Bfn.  Coefficient  Atom+Function         Bfn.  Coefficient  Atom+Function  
  ----- ------------  ---------------      ----- ------------  ---------------
    67      1.628666  2 C  px               344      1.075431  7 Cl s          
   284      1.026078  6 Cl s                285     -1.020939  6 Cl s          
   343     -1.007819  7 Cl s                 68     -0.992040  2 C  py         
   239      0.943204  5 Cl px               358      0.889419  7 Cl py         
    70     -0.847898  2 C  px               298     -0.756807  6 Cl px         

 Vector   55  Occ=0.000000D+00  E= 7.939294D-02
              MO Center= -1.5D-01, -1.4D-01,  1.5D+00, r^2= 1.9D+01
   Bfn.  Coefficient  Atom+Function         Bfn.  Coefficient  Atom+Function  
  ----- ------------  ---------------      ----- ------------  ---------------
    60     25.248942  2 C  s                  5    -16.832476  1 C  s          
   285     -5.462001  6 Cl s                344     -5.459238  7 Cl s          
   226     -4.615375  5 Cl s                  4     -4.357915  1 C  s          
   170      4.319996  4 O  s                 17     -3.524446  1 C  pz         
    72     -2.739946  2 C  pz               115      2.488730  3 O  s          

 Vector   56  Occ=0.000000D+00  E= 9.353573D-02
              MO Center= -3.9D-01, -5.0D-01,  1.4D+00, r^2= 1.9D+01
   Bfn.  Coefficient  Atom+Function         Bfn.  Coefficient  Atom+Function  
  ----- ------------  ---------------      ----- ------------  ---------------
    15      2.437755  1 C  px               300     -1.730482  6 Cl pz         
   359      1.554988  7 Cl pz                70     -1.513620  2 C  px         
    16     -1.350923  1 C  py               285     -1.278944  6 Cl s          
   344      1.273336  7 Cl s                 67     -0.961168  2 C  px         
   357     -0.848443  7 Cl px                71      0.839402  2 C  py         

 Vector   57  Occ=0.000000D+00  E= 9.376919D-02
              MO Center=  2.1D-02,  5.5D-02,  1.5D+00, r^2= 2.0D+01
   Bfn.  Coefficient  Atom+Function         Bfn.  Coefficient  Atom+Function  
  ----- ------------  ---------------      ----- ------------  ---------------
    60      4.722621  2 C  s                 72     -3.437940  2 C  pz         
    16     -3.099091  1 C  py                 5     -2.200578  1 C  s          
   359      1.865542  7 Cl pz                15     -1.782084  1 C  px         
   226     -1.789034  5 Cl s                 71      1.779190  2 C  py         
   300      1.786262  6 Cl pz                 4     -1.430520  1 C  s          

 Vector   58  Occ=0.000000D+00  E= 9.721839D-02
              MO Center= -1.4D-01, -1.5D-01,  2.2D+00, r^2= 1.9D+01
   Bfn.  Coefficient  Atom+Function         Bfn.  Coefficient  Atom+Function  
  ----- ------------  ---------------      ----- ------------  ---------------
   299      1.901319  6 Cl py               357     -1.652786  7 Cl px         
   239      1.465779  5 Cl px               358     -0.960060  7 Cl py         
   240     -0.878025  5 Cl py                70      0.737733  2 C  px         
   296     -0.515142  6 Cl py               344     -0.490133  7 Cl s          
   285      0.458205  6 Cl s                 71     -0.447093  2 C  py         

 Vector   59  Occ=0.000000D+00  E= 1.017456D-01
              MO Center=  3.6D-01,  6.6D-01,  1.3D+00, r^2= 1.7D+01
   Bfn.  Coefficient  Atom+Function         Bfn.  Coefficient  Atom+Function  
  ----- ------------  ---------------      ----- ------------  ---------------
     4      7.713819  1 C  s                 60     -7.434753  2 C  s          
    72      6.934328  2 C  pz                 5      5.252935  1 C  s          
   115     -4.614975  3 O  s                170     -3.856382  4 O  s          
    35      3.615027  1 C  dzz              226      2.994931  5 Cl s          
    59     -2.786216  2 C  s                 30      2.476137  1 C  dxx        

 Vector   60  Occ=0.000000D+00  E= 1.093762D-01
              MO Center=  3.2D-02,  3.8D-01,  1.1D+00, r^2= 1.5D+01
   Bfn.  Coefficient  Atom+Function         Bfn.  Coefficient  Atom+Function  
  ----- ------------  ---------------      ----- ------------  ---------------
    60    -11.536724  2 C  s                  5     11.160705  1 C  s          
    70      8.029915  2 C  px                59      4.592048  2 C  s          
    71     -4.300498  2 C  py               344     -3.984803  7 Cl s          
   285      3.808210  6 Cl s                 72      2.924227  2 C  pz         
    15     -2.898452  1 C  px               239     -2.279515  5 Cl px         

 Vector   61  Occ=0.000000D+00  E= 1.095711D-01
              MO Center=  1.1D-01,  2.1D-02,  9.5D-01, r^2= 1.5D+01
   Bfn.  Coefficient  Atom+Function         Bfn.  Coefficient  Atom+Function  
  ----- ------------  ---------------      ----- ------------  ---------------
    60    -24.681387  2 C  s                  5     23.819661  1 C  s          
    59     10.059659  2 C  s                 72      5.280111  2 C  pz         
     4     -4.979696  1 C  s                115     -4.326746  3 O  s          
    17      4.219302  1 C  pz                14     -4.151931  1 C  pz         
    90      3.855474  2 C  dzz               69     -3.801171  2 C  pz         

 Vector   62  Occ=0.000000D+00  E= 1.177344D-01
              MO Center=  6.1D-02,  1.2D-01,  2.0D+00, r^2= 1.6D+01
   Bfn.  Coefficient  Atom+Function         Bfn.  Coefficient  Atom+Function  
  ----- ------------  ---------------      ----- ------------  ---------------
    71      9.081178  2 C  py                60      8.227808  2 C  s          
     5     -6.925066  1 C  s                 72     -5.356764  2 C  pz         
    70      4.880029  2 C  px                16     -3.459608  1 C  py         
    59     -3.240424  2 C  s                 68      2.912290  2 C  py         
   225     -2.520013  5 Cl s                  4      2.422347  1 C  s          

 Vector   63  Occ=0.000000D+00  E= 1.198836D-01
              MO Center= -3.6D-01, -4.4D-01,  1.4D+00, r^2= 1.6D+01
   Bfn.  Coefficient  Atom+Function         Bfn.  Coefficient  Atom+Function  
  ----- ------------  ---------------      ----- ------------  ---------------
    67      4.260634  2 C  px               284      4.018688  6 Cl s          
   343     -3.866047  7 Cl s                344      3.457343  7 Cl s          
   285     -3.405241  6 Cl s                 70      2.716256  2 C  px         
    68     -2.331206  2 C  py               295      2.074879  6 Cl px         
   298     -1.854949  6 Cl px                85     -1.703167  2 C  dxx        

 Vector   64  Occ=0.000000D+00  E= 1.251491D-01
              MO Center= -2.3D-01, -3.6D-01,  8.0D-01, r^2= 1.7D+01
   Bfn.  Coefficient  Atom+Function         Bfn.  Coefficient  Atom+Function  
  ----- ------------  ---------------      ----- ------------  ---------------
    72     10.545123  2 C  pz                 4     -9.165311  1 C  s          
    60     -8.500091  2 C  s                  5      7.059383  1 C  s          
    71      4.752848  2 C  py                59      4.560260  2 C  s          
    69     -3.812876  2 C  pz               170      3.774426  4 O  s          
   226     -3.428489  5 Cl s                 14     -3.132320  1 C  pz         

 Vector   65  Occ=0.000000D+00  E= 1.431007D-01
              MO Center= -1.9D-01, -3.3D-01,  8.3D-01, r^2= 1.5D+01
   Bfn.  Coefficient  Atom+Function         Bfn.  Coefficient  Atom+Function  
  ----- ------------  ---------------      ----- ------------  ---------------
    60     14.533634  2 C  s                  4      9.370923  1 C  s          
   170     -9.065544  4 O  s                226     -8.383905  5 Cl s          
   115     -7.124603  3 O  s                 59     -4.879729  2 C  s          
    33      4.048678  1 C  dyy              344     -3.358578  7 Cl s          
   285     -2.897125  6 Cl s                182     -2.724914  4 O  pz         

 Vector   66  Occ=0.000000D+00  E= 1.639355D-01
              MO Center=  6.8D-02,  2.2D-01,  2.1D+00, r^2= 1.8D+01
   Bfn.  Coefficient  Atom+Function         Bfn.  Coefficient  Atom+Function  
  ----- ------------  ---------------      ----- ------------  ---------------
     5     15.260617  1 C  s                 72     11.541783  2 C  pz         
   285     -8.429745  6 Cl s                344     -8.409619  7 Cl s          
   226     -7.058428  5 Cl s                 60      4.922918  2 C  s          
   170     -2.957300  4 O  s                284      2.590060  6 Cl s          
   343      2.556618  7 Cl s                 34      2.528579  1 C  dyz        

 Vector   67  Occ=0.000000D+00  E= 1.678710D-01
              MO Center= -2.1D-01, -2.0D-01,  7.9D-01, r^2= 1.5D+01
   Bfn.  Coefficient  Atom+Function         Bfn.  Coefficient  Atom+Function  
  ----- ------------  ---------------      ----- ------------  ---------------
   285      7.693315  6 Cl s                344     -6.773845  7 Cl s          
    70      4.503326  2 C  px                67     -3.532973  2 C  px         
   284     -3.350766  6 Cl s                343      3.231408  7 Cl s          
    71     -1.970299  2 C  py               180      1.673406  4 O  px         
    68      1.380025  2 C  py                15     -1.305734  1 C  px         

 Vector   68  Occ=0.000000D+00  E= 1.715499D-01
              MO Center=  1.1D-02, -1.2D-01,  2.0D-01, r^2= 1.6D+01
   Bfn.  Coefficient  Atom+Function         Bfn.  Coefficient  Atom+Function  
  ----- ------------  ---------------      ----- ------------  ---------------
    60     16.344810  2 C  s                  5    -13.625959  1 C  s          
   226     -7.991465  5 Cl s                 59     -7.371849  2 C  s          
   225      6.971202  5 Cl s                 72     -6.314964  2 C  pz         
    71      6.044480  2 C  py                68     -4.473932  2 C  py         
    17     -4.404200  1 C  pz               344      4.193669  7 Cl s          

 Vector   69  Occ=0.000000D+00  E= 1.777519D-01
              MO Center=  1.6D-01,  1.7D-01,  6.4D-01, r^2= 1.9D+01
   Bfn.  Coefficient  Atom+Function         Bfn.  Coefficient  Atom+Function  
  ----- ------------  ---------------      ----- ------------  ---------------
    60     37.595529  2 C  s                  5    -21.482778  1 C  s          
   344    -11.495675  7 Cl s                285    -10.453053  6 Cl s          
    72    -10.207645  2 C  pz                71     -9.519908  2 C  py         
    59     -8.177399  2 C  s                  4     -7.303750  1 C  s          
   115      5.261164  3 O  s                 70     -4.845065  2 C  px         

 Vector   70  Occ=0.000000D+00  E= 1.804783D-01
              MO Center= -3.1D-02,  1.3D-01,  1.0D+00, r^2= 1.6D+01
   Bfn.  Coefficient  Atom+Function         Bfn.  Coefficient  Atom+Function  
  ----- ------------  ---------------      ----- ------------  ---------------
   285      7.299412  6 Cl s                344     -6.210672  7 Cl s          
    70      5.100173  2 C  px                71     -2.703700  2 C  py         
    60     -2.651239  2 C  s                125     -2.077117  3 O  px         
    87     -1.838447  2 C  dxz              284     -1.719124  6 Cl s          
    15      1.649769  1 C  px               126      1.448163  3 O  py         

 Vector   71  Occ=0.000000D+00  E= 1.924121D-01
              MO Center=  7.3D-02,  2.2D-01,  8.1D-01, r^2= 1.7D+01
   Bfn.  Coefficient  Atom+Function         Bfn.  Coefficient  Atom+Function  
  ----- ------------  ---------------      ----- ------------  ---------------
   170      9.584946  4 O  s                226     -9.059083  5 Cl s          
    71      5.781254  2 C  py                69      5.481161  2 C  pz         
    14      5.382260  1 C  pz                68      4.366371  2 C  py         
    72      3.638543  2 C  pz               127      3.569519  3 O  pz         
    33     -3.364430  1 C  dyy               70      3.353142  2 C  px         

 Vector   72  Occ=0.000000D+00  E= 1.969476D-01
              MO Center= -1.7D-02, -8.0D-02,  1.1D+00, r^2= 1.4D+01
   Bfn.  Coefficient  Atom+Function         Bfn.  Coefficient  Atom+Function  
  ----- ------------  ---------------      ----- ------------  ---------------
    67      4.309493  2 C  px               284      3.551554  6 Cl s          
   343     -3.123124  7 Cl s                 70      2.688996  2 C  px         
    68     -2.394819  2 C  py               295      2.157433  6 Cl px         
   285     -2.049926  6 Cl s                 71     -1.890462  2 C  py         
    89     -1.769210  2 C  dyz              355     -1.749560  7 Cl py         

 Vector   73  Occ=0.000000D+00  E= 1.990766D-01
              MO Center= -1.1D-01, -2.5D-01,  1.5D-01, r^2= 1.6D+01
   Bfn.  Coefficient  Atom+Function         Bfn.  Coefficient  Atom+Function  
  ----- ------------  ---------------      ----- ------------  ---------------
    60      8.904825  2 C  s                  4      7.040887  1 C  s          
   115     -5.391832  3 O  s                285     -5.382254  6 Cl s          
   344     -4.084587  7 Cl s                 16     -3.982876  1 C  py         
   126      3.927632  3 O  py               225      3.808675  5 Cl s          
    68     -3.752915  2 C  py                59     -3.727255  2 C  s          

 Vector   74  Occ=0.000000D+00  E= 2.014696D-01
              MO Center=  2.0D-01,  5.7D-01,  2.8D-02, r^2= 1.5D+01
   Bfn.  Coefficient  Atom+Function         Bfn.  Coefficient  Atom+Function  
  ----- ------------  ---------------      ----- ------------  ---------------
    60     21.230366  2 C  s                  5    -18.317414  1 C  s          
   115     12.963304  3 O  s                226    -11.846416  5 Cl s          
    17     -6.042583  1 C  pz                71      5.608941  2 C  py         
    70      4.801085  2 C  px                 4     -4.325877  1 C  s          
    72      4.089539  2 C  pz                69      3.855487  2 C  pz         

 Vector   75  Occ=0.000000D+00  E= 2.074869D-01
              MO Center= -3.2D-01,  1.2D-01,  1.2D+00, r^2= 1.5D+01
   Bfn.  Coefficient  Atom+Function         Bfn.  Coefficient  Atom+Function  
  ----- ------------  ---------------      ----- ------------  ---------------
    71     11.126748  2 C  py                60      8.717183  2 C  s          
   285     -8.609112  6 Cl s                344      8.484932  7 Cl s          
    70     -7.153209  2 C  px                67     -6.697314  2 C  px         
    16     -5.171347  1 C  py                68      4.988862  2 C  py         
   355      4.947306  7 Cl py               226     -4.266863  5 Cl s          

 Vector   76  Occ=0.000000D+00  E= 2.086434D-01
              MO Center= -3.5D-02, -3.8D-01,  5.8D-01, r^2= 1.6D+01
   Bfn.  Coefficient  Atom+Function         Bfn.  Coefficient  Atom+Function  
  ----- ------------  ---------------      ----- ------------  ---------------
    70     10.663548  2 C  px                71      9.817474  2 C  py         
    72     -8.750497  2 C  pz               226     -6.770476  5 Cl s          
    16     -6.510328  1 C  py                15     -5.880991  1 C  px         
    60      5.472444  2 C  s                285      5.307322  6 Cl s          
    69     -4.909855  2 C  pz                 4     -4.845901  1 C  s          

 Vector   77  Occ=0.000000D+00  E= 2.214330D-01
              MO Center= -1.5D-01, -5.0D-01,  1.1D+00, r^2= 1.8D+01
   Bfn.  Coefficient  Atom+Function         Bfn.  Coefficient  Atom+Function  
  ----- ------------  ---------------      ----- ------------  ---------------
    60     73.347302  2 C  s                  5    -42.389382  1 C  s          
   344    -14.874695  7 Cl s                 59    -13.567313  2 C  s          
    72    -13.512797  2 C  pz               285    -13.521842  6 Cl s          
   226    -10.470469  5 Cl s                170      7.627115  4 O  s          
    85     -5.597524  2 C  dxx              284      3.856577  6 Cl s          

 Vector   78  Occ=0.000000D+00  E= 2.320581D-01
              MO Center=  3.4D-01,  6.6D-01,  1.7D+00, r^2= 1.5D+01
   Bfn.  Coefficient  Atom+Function         Bfn.  Coefficient  Atom+Function  
  ----- ------------  ---------------      ----- ------------  ---------------
    60     14.866696  2 C  s                  5     -7.532398  1 C  s          
    72     -7.118441  2 C  pz               115      6.814303  3 O  s          
    71     -5.253864  2 C  py               226     -4.897093  5 Cl s          
     4     -4.442304  1 C  s                 70     -2.724658  2 C  px         
    69     -2.349749  2 C  pz               241      2.269160  5 Cl pz         

 Vector   79  Occ=0.000000D+00  E= 2.406225D-01
              MO Center= -7.1D-02, -1.6D-01,  7.0D-01, r^2= 1.2D+01
   Bfn.  Coefficient  Atom+Function         Bfn.  Coefficient  Atom+Function  
  ----- ------------  ---------------      ----- ------------  ---------------
    70      5.825025  2 C  px                87     -5.624480  2 C  dxz        
    60     -3.531864  2 C  s                 71     -3.340948  2 C  py         
    89      3.327689  2 C  dyz               12     -3.020101  1 C  px         
    32     -3.021464  1 C  dxz               15     -2.631819  1 C  px         
    67      2.548212  2 C  px                86     -2.326159  2 C  dxy        

 Vector   80  Occ=0.000000D+00  E= 2.495932D-01
              MO Center= -2.4D-01, -3.8D-01,  1.9D+00, r^2= 9.4D+00
   Bfn.  Coefficient  Atom+Function         Bfn.  Coefficient  Atom+Function  
  ----- ------------  ---------------      ----- ------------  ---------------
    67      3.857545  2 C  px                87      3.718432  2 C  dxz        
   284      3.424726  6 Cl s                 70      2.985691  2 C  px         
   343     -2.461582  7 Cl s                295      2.190577  6 Cl px         
    60      1.651458  2 C  s                 89     -1.609262  2 C  dyz        
   285     -1.527243  6 Cl s                 71     -1.425894  2 C  py         

 Vector   81  Occ=0.000000D+00  E= 2.550360D-01
              MO Center= -3.1D-01, -3.1D-01,  1.6D+00, r^2= 1.3D+01
   Bfn.  Coefficient  Atom+Function         Bfn.  Coefficient  Atom+Function  
  ----- ------------  ---------------      ----- ------------  ---------------
    59     12.667028  2 C  s                170      9.679438  4 O  s          
     4     -9.211593  1 C  s                 68     -6.409943  2 C  py         
   343     -4.462774  7 Cl s                 89     -4.238897  2 C  dyz        
    85      4.107295  2 C  dxx              295     -4.042721  6 Cl px         
   284     -3.909578  6 Cl s                355     -3.812520  7 Cl py         

 Vector   82  Occ=0.000000D+00  E= 2.670922D-01
              MO Center=  2.7D-01,  4.3D-01,  2.0D+00, r^2= 1.1D+01
   Bfn.  Coefficient  Atom+Function         Bfn.  Coefficient  Atom+Function  
  ----- ------------  ---------------      ----- ------------  ---------------
    60     16.842294  2 C  s                 59    -12.166192  2 C  s          
     4     11.586152  1 C  s                  5     -7.322869  1 C  s          
   115     -6.387516  3 O  s                 88     -4.355935  2 C  dyy        
    71     -3.981936  2 C  py                33      3.877488  1 C  dyy        
    90     -3.840862  2 C  dzz               13      3.757171  1 C  py         

 Vector   83  Occ=0.000000D+00  E= 2.696017D-01
              MO Center= -2.8D-01, -2.2D-01,  2.1D+00, r^2= 9.8D+00
   Bfn.  Coefficient  Atom+Function         Bfn.  Coefficient  Atom+Function  
  ----- ------------  ---------------      ----- ------------  ---------------
   344      2.434477  7 Cl s                285     -2.239062  6 Cl s          
    60     -2.056307  2 C  s                 59      1.822135  2 C  s          
     4     -1.623875  1 C  s                 67      1.491176  2 C  px         
   343     -1.473007  7 Cl s                 88      1.345008  2 C  dyy        
   298     -1.277707  6 Cl px               284      1.236844  6 Cl s          

 Vector   84  Occ=0.000000D+00  E= 2.823318D-01
              MO Center= -2.4D-01, -3.0D-01,  1.3D+00, r^2= 1.3D+01
   Bfn.  Coefficient  Atom+Function         Bfn.  Coefficient  Atom+Function  
  ----- ------------  ---------------      ----- ------------  ---------------
    60     21.543915  2 C  s                 59    -17.682075  2 C  s          
     5    -15.429478  1 C  s                170     11.740501  4 O  s          
    14      9.104606  1 C  pz                 4      7.182602  1 C  s          
    72     -6.758940  2 C  pz                69      6.120905  2 C  pz         
    90     -5.598643  2 C  dzz               89     -4.978186  2 C  dyz        

 Vector   85  Occ=0.000000D+00  E= 2.953893D-01
              MO Center=  1.7D-02,  7.7D-02,  5.2D-01, r^2= 6.9D+00
   Bfn.  Coefficient  Atom+Function         Bfn.  Coefficient  Atom+Function  
  ----- ------------  ---------------      ----- ------------  ---------------
    59     12.972618  2 C  s                 60     -9.188252  2 C  s          
    69      8.340654  2 C  pz               343     -5.760620  7 Cl s          
    85      5.730319  2 C  dxx              284     -5.697029  6 Cl s          
   295     -5.236063  6 Cl px                72      5.001700  2 C  pz         
    88      4.836953  2 C  dyy              355     -4.657602  7 Cl py         

 Vector   86  Occ=0.000000D+00  E= 2.991244D-01
              MO Center=  3.2D-01,  6.4D-01,  1.1D+00, r^2= 1.1D+01
   Bfn.  Coefficient  Atom+Function         Bfn.  Coefficient  Atom+Function  
  ----- ------------  ---------------      ----- ------------  ---------------
   115     13.707718  3 O  s                  5    -11.669398  1 C  s          
    60     11.711699  2 C  s                170      7.701158  4 O  s          
    59     -5.273413  2 C  s                 69      4.871771  2 C  pz         
    14      4.531777  1 C  pz                33     -4.520650  1 C  dyy        
    30     -3.925262  1 C  dxx              127      3.768796  3 O  pz         

 Vector   87  Occ=0.000000D+00  E= 3.072282D-01
              MO Center=  1.1D-01,  2.6D-01,  1.2D+00, r^2= 1.2D+01
   Bfn.  Coefficient  Atom+Function         Bfn.  Coefficient  Atom+Function  
  ----- ------------  ---------------      ----- ------------  ---------------
    87      7.950072  2 C  dxz               89     -4.598339  2 C  dyz        
    32      4.411246  1 C  dxz               67     -3.735132  2 C  px         
    12      2.902915  1 C  px                86      2.878832  2 C  dxy        
    88     -2.659731  2 C  dyy              356     -2.597810  7 Cl pz         
    34     -2.543353  1 C  dyz              297      2.484336  6 Cl pz         

 Vector   88  Occ=0.000000D+00  E= 3.151333D-01
              MO Center= -1.7D-02,  8.4D-02,  2.2D+00, r^2= 1.2D+01
   Bfn.  Coefficient  Atom+Function         Bfn.  Coefficient  Atom+Function  
  ----- ------------  ---------------      ----- ------------  ---------------
   299      1.556881  6 Cl py               239      1.480929  5 Cl px         
   357     -1.337839  7 Cl px               296     -1.204553  6 Cl py         
   314      1.122454  6 Cl dxy              354      1.053658  7 Cl px         
   240     -0.898191  5 Cl py               358     -0.819815  7 Cl py         
   236     -0.771962  5 Cl px               255     -0.686515  5 Cl dxy        

 Vector   89  Occ=0.000000D+00  E= 3.193603D-01
              MO Center=  1.1D-02,  2.0D-02,  8.1D-01, r^2= 1.4D+01
   Bfn.  Coefficient  Atom+Function         Bfn.  Coefficient  Atom+Function  
  ----- ------------  ---------------      ----- ------------  ---------------
     4     30.310156  1 C  s                 59    -21.966396  2 C  s          
    69     16.023790  2 C  pz                14     15.266365  1 C  pz         
    60     13.377608  2 C  s                 35     12.865787  1 C  dzz        
     5    -12.756292  1 C  s                 90     -8.544502  2 C  dzz        
   170     -8.126574  4 O  s                115     -7.537522  3 O  s          

 Vector   90  Occ=0.000000D+00  E= 3.226702D-01
              MO Center= -7.2D-02, -4.9D-02,  1.1D+00, r^2= 1.2D+01
   Bfn.  Coefficient  Atom+Function         Bfn.  Coefficient  Atom+Function  
[...]
   175    -10.322664  4 O  py               284     -8.756046  6 Cl s          
   121     -8.576276  3 O  pz               343     -8.188243  7 Cl s          

 Vector  392  Occ=0.000000D+00  E= 1.653218D+01
              MO Center=  2.9D-02,  2.5D-02, -5.7D-01, r^2= 2.2D+00
   Bfn.  Coefficient  Atom+Function         Bfn.  Coefficient  Atom+Function  
  ----- ------------  ---------------      ----- ------------  ---------------
     4     17.358785  1 C  s                114    -11.637470  3 O  s          
   112     -9.318018  3 O  s                167     -9.177765  4 O  s          
    60     -8.377597  2 C  s                  5      6.871496  1 C  s          
   115     -6.543570  3 O  s                169     -6.458886  4 O  s          
   170     -5.656705  4 O  s                123      4.316137  3 O  py         

 Vector  393  Occ=0.000000D+00  E= 1.666553D+01
              MO Center= -1.8D-03, -3.1D-02, -6.0D-01, r^2= 2.0D+00
   Bfn.  Coefficient  Atom+Function         Bfn.  Coefficient  Atom+Function  
  ----- ------------  ---------------      ----- ------------  ---------------
   114     14.258199  3 O  s                169    -13.203959  4 O  s          
   112      7.395423  3 O  s                167     -7.409487  4 O  s          
   178     -4.970097  4 O  py                13     -4.822207  1 C  py         
   179     -4.382865  4 O  pz                60     -4.253822  2 C  s          
    10     -4.132721  1 C  py               124      3.721605  3 O  pz         

 Vector  394  Occ=0.000000D+00  E= 1.855184D+01
              MO Center= -3.4D-01, -5.9D-01,  5.0D-02, r^2= 3.5D+00
   Bfn.  Coefficient  Atom+Function         Bfn.  Coefficient  Atom+Function  
  ----- ------------  ---------------      ----- ------------  ---------------
     4     32.882784  1 C  s                 60    -20.636529  2 C  s          
    13    -12.800200  1 C  py                57     10.820960  2 C  s          
     5     10.371946  1 C  s                178    -10.052260  4 O  py         
    31      9.959436  1 C  dxy              195     -9.021404  4 O  dxx        
   198     -8.956103  4 O  dyy              175     -8.752116  4 O  py         

 Vector  395  Occ=0.000000D+00  E= 1.912837D+01
              MO Center=  4.0D-01,  6.9D-01, -3.5D-01, r^2= 2.5D+00
   Bfn.  Coefficient  Atom+Function         Bfn.  Coefficient  Atom+Function  
  ----- ------------  ---------------      ----- ------------  ---------------
     4     33.888412  1 C  s                 59    -27.535358  2 C  s          
    13     17.350767  1 C  py                60     14.766723  2 C  s          
   123     13.347032  3 O  py               114    -13.127255  3 O  s          
   124    -11.867846  3 O  pz                50    -10.800615  1 C  fxyz       
    31     10.481142  1 C  dxy              120     10.448536  3 O  py         

 Vector  396  Occ=0.000000D+00  E= 2.427583D+01
              MO Center= -1.3D-01, -1.7D-01,  1.0D+00, r^2= 3.3D+00
   Bfn.  Coefficient  Atom+Function         Bfn.  Coefficient  Atom+Function  
  ----- ------------  ---------------      ----- ------------  ---------------
    59     67.017911  2 C  s                 57    -25.448184  2 C  s          
    50    -13.251019  1 C  fxyz              14    -13.021149  1 C  pz         
    53    -12.772354  1 C  fyyz              56    -12.476678  2 C  s          
    69    -11.441513  2 C  pz                13    -10.264172  1 C  py         
   284    -10.098750  6 Cl s                104      9.898915  2 C  fxyy       

 Vector  397  Occ=0.000000D+00  E= 2.873083D+01
              MO Center=  5.7D-03,  3.4D-03, -6.0D-02, r^2= 1.6D+00
   Bfn.  Coefficient  Atom+Function         Bfn.  Coefficient  Atom+Function  
  ----- ------------  ---------------      ----- ------------  ---------------
     2     30.542544  1 C  s                 59     23.869729  2 C  s          
   114    -20.693853  3 O  s                169    -19.727068  4 O  s          
    53    -15.533656  1 C  fyyz               1     15.060076  1 C  s          
    25     13.472838  1 C  dxy               50    -11.002795  1 C  fxyz       
    33    -10.417386  1 C  dyy              170     10.073157  4 O  s          


   alpha - beta orbital overlaps 
   ----------------------------- 


   alpha      1      2      3      4      5      6      7      8      9     10
    beta      1      2      3      4      5      6      7      8      9     10
 overlap   1.000  1.000  1.000  1.000  1.000  1.000  1.000  1.000  1.000  1.000


   alpha     11     12     13     14     15     16     17     18     19     20
    beta     11     12     13     14     15     16     17     18     19     20
 overlap   0.999  0.999  1.000  0.995  0.995  0.996  0.996  0.997  0.998  1.000


   alpha     21     22     23     24     25     26     27     28     29     30
    beta     21     22     23     24     25     26     28     27     29     30
 overlap   1.000  1.000  1.000  1.000  0.998  0.998  0.993  0.997  0.982  0.984


   alpha     31     32     33     34     35     36     37     38     39     40
    beta     31     32     33     34     35     36     37     40     38     39
 overlap   1.000  0.957  0.997  0.961  0.960  0.994  0.984  0.983  0.988  0.961


   alpha     41     42     43     44     45     46     47     48     49     50
    beta     41     42     43     44     45     46     47     48     49     49
 overlap   1.000  1.000  1.000  1.000  0.999  0.998  1.000  1.000  0.551  0.748


   alpha     51     52     53     54     55     56     57     58     59     60
    beta     51     52     53     54     55     56     57     58     59     60
 overlap   0.771  0.877  0.932  1.000  0.998  0.998  0.999  0.999  0.999  0.932


   alpha     61     62     63     64     65     66     67     68     69     70
    beta     61     62     63     64     65     66     67     68     69     70
 overlap   0.930  0.993  0.999  0.993  0.999  0.998  0.999  0.974  0.971  0.999


   alpha     71     72     73     74     75     76     77     78     79     80
    beta     71     72     73     74     75     76     77     78     79     80
 overlap   0.996  0.999  0.981  0.985  0.986  0.984  0.998  0.998  1.000  1.000


   alpha     81     82     83     84     85     86     87     88     89     90
    beta     81     82     83     84     85     86     87     88     89     90
 overlap   0.997  0.780  0.783  0.998  0.822  0.826  0.999  0.999  0.994  0.997


   alpha     91     92     93     94     95     96     97     98     99    100
    beta     91     92     93     94     95     96     97     98     99    100
 overlap   0.996  0.993  1.000  1.000  0.998  0.999  0.993  0.993  0.998  0.999


   alpha    101    102    103    104    105    106    107    108    109    110
    beta    101    102    103    104    105    106    107    108    109    110
 overlap   0.984  0.982  1.000  1.000  0.996  0.998  0.996  0.919  0.918  0.999


   alpha    111    112    113    114    115    116    117    118    119    120
    beta    111    112    113    114    115    116    117    118    119    120
 overlap   0.968  0.969  0.998  0.997  0.999  0.997  0.999  0.995  0.993  0.999


   alpha    121    122    123    124    125    126    127    128    129    130
    beta    121    122    123    124    125    126    127    128    129    130
 overlap   0.863  0.864  0.980  0.979  0.990  0.993  0.977  0.984  0.997  0.996


   alpha    131    132    133    134    135    136    137    138    139    140
    beta    131    132    133    134    135    136    137    138    139    140
 overlap   0.992  0.998  0.992  0.999  0.997  0.998  0.991  0.990  0.999  0.998


   alpha    141    142    143    144    145    146    147    148    149    150
    beta    141    142    143    144    145    146    147    148    149    150
 overlap   1.000  0.998  0.998  0.999  0.997  1.000  0.998  0.982  0.982  0.999


   alpha    151    152    153    154    155    156    157    158    159    160
    beta    151    152    153    154    155    156    157    158    159    160
 overlap   1.000  0.990  0.991  0.997  0.994  0.998  0.999  0.999  0.991  0.991


   alpha    161    162    163    164    165    166    167    168    169    170
    beta    161    162    163    165    164    166    167    168    169    170
 overlap   0.998  0.998  0.998  0.842  0.842  0.999  1.000  1.000  0.999  0.999


   alpha    171    172    173    174    175    176    177    178    179    180
    beta    171    172    173    174    175    176    177    178    179    180
 overlap   0.999  0.999  0.969  0.969  0.999  0.971  0.967  0.999  0.995  0.998


   alpha    181    182    183    184    185    186    187    188    189    190
    beta    181    182    183    184    185    186    187    188    189    190
 overlap   0.996  0.997  0.989  0.992  0.998  0.999  0.999  0.999  0.999  0.999


   alpha    191    192    193    194    195    196    197    198    199    200
    beta    191    192    193    194    195    196    197    198    199    200
 overlap   0.999  0.999  0.999  0.999  0.998  0.977  0.972  0.995  0.998  1.000


   alpha    201    202    203    204    205    206    207    208    209    210
    beta    201    202    203    204    205    206    207    208    209    210
 overlap   0.998  1.000  0.998  0.998  1.000  0.999  0.998  0.998  0.999  0.998


   alpha    211    212    213    214    215    216    217    218    219    220
    beta    211    212    213    214    215    216    217    218    219    220
 overlap   1.000  1.000  0.999  0.997  0.999  0.998  1.000  0.998  1.000  0.998


   alpha    221    222    223    224    225    226    227    228    229    230
    beta    221    222    223    224    225    226    228    227    229    230
 overlap   0.997  0.999  0.954  0.955  1.000  0.999  0.792  0.792  1.000  0.992


   alpha    231    232    233    234    235    236    237    238    239    240
    beta    231    232    233    234    235    236    237    238    239    241
 overlap   0.999  0.990  0.993  0.992  0.989  0.996  0.996  0.995  0.995  0.939


   alpha    241    242    243    244    245    246    247    248    249    250
    beta    240    242    243    244    246    245    247    248    249    250
 overlap   0.940  0.999  1.000  0.999  0.834  0.840  0.998  0.993  0.999  1.000


   alpha    251    252    253    254    255    256    257    258    259    260
    beta    251    252    253    254    255    256    257    258    259    260
 overlap   1.000  0.998  0.998  0.997  0.996  0.981  0.981  0.991  0.990  0.999


   alpha    261    262    263    264    265    266    267    268    269    270
    beta    261    262    263    264    265    266    267    268    269    270
 overlap   0.999  0.996  0.996  0.999  0.998  0.996  0.999  0.988  0.994  0.999


   alpha    271    272    273    274    275    276    277    278    279    280
    beta    271    272    273    274    275    276    277    278    279    280
 overlap   0.999  0.997  0.998  0.998  0.976  0.976  0.997  0.996  0.998  0.998


   alpha    281    282    283    284    285    286    287    288    289    290
    beta    281    282    283    284    285    286    287    288    289    290
 overlap   0.999  0.999  0.999  0.999  0.994  0.994  1.000  0.998  0.995  0.994


   alpha    291    292    293    294    295    296    297    298    299    300
    beta    291    292    293    294    295    296    297    298    299    300
 overlap   0.996  0.998  1.000  0.998  0.974  0.988  0.966  0.997  0.999  0.998


   alpha    301    302    303    304    305    306    307    308    309    310
    beta    301    302    303    304    305    306    308    307    309    310
 overlap   0.997  1.000  0.993  0.992  0.999  0.993  0.763  0.767  0.998  0.988


   alpha    311    312    313    314    315    316    317    318    319    320
    beta    311    312    313    314    315    316    317    318    319    320
 overlap   0.989  0.998  1.000  0.999  0.999  0.999  0.999  1.000  1.000  0.997


   alpha    321    322    323    324    325    326    327    328    329    330
    beta    321    322    323    324    325    326    327    328    329    330
 overlap   0.997  1.000  1.000  1.000  1.000  1.000  1.000  0.999  0.999  1.000


   alpha    331    332    333    334    335    336    337    338    339    340
    beta    331    332    333    334    335    336    337    338    339    340
 overlap   1.000  1.000  0.999  0.998  0.998  0.998  1.000  1.000  1.000  1.000


   alpha    341    342    343    344    345    346    347    348    349    350
    beta    341    342    343    344    345    346    347    348    349    350
 overlap   1.000  1.000  1.000  1.000  0.999  0.999  0.999  0.999  0.963  0.963


   alpha    351    352    353    354    355    356    357    358    359    360
    beta    351    352    353    354    355    356    357    358    359    360
 overlap   0.998  0.970  0.969  0.997  0.997  0.993  0.995  0.809  0.808  0.999


   alpha    361    362    363    364    365    366    367    368    369    370
    beta    361    362    363    364    365    366    367    368    369    370
 overlap   0.998  0.998  0.999  1.000  1.000  0.998  0.999  0.998  0.998  1.000


   alpha    371    372    373    374    375    376    377    378    379    380
    beta    371    372    373    374    375    376    377    378    379    380
 overlap   0.729  0.729  1.000  1.000  1.000  1.000  1.000  1.000  1.000  1.000


   alpha    381    382    383    384    385    386    387    388    389    390
    beta    381    382    383    384    385    386    387    388    389    390
 overlap   1.000  1.000  1.000  1.000  1.000  1.000  1.000  1.000  1.000  1.000


   alpha    391    392    393    394    395    396    397
    beta    391    392    393    394    395    396    397
 overlap   1.000  1.000  1.000  1.000  1.000  1.000  1.000

     --------------------------
     Expectation value of S2:  
     --------------------------
      <S2> =      0.7525 (Exact =     0.7500)


 center of mass
 --------------
 x =  -0.10663892 y =  -0.03409025 z =   2.71098565

 moments of inertia (a.u.)
 ------------------
        1440.329489653729         -59.458985296685          -4.025330527660
         -59.458985296685        1367.266067824288         -16.231238685261
          -4.025330527660         -16.231238685261        1221.863455646426

     Multipole analysis of the density
     ---------------------------------

     L   x y z        total         alpha         beta         nuclear
     -   - - -        -----         -----         ----         -------
     0   0 0 0     -0.000000    -40.000000    -39.000000     79.000000

     1   1 0 0     -0.044458      4.189543      4.110703     -8.344703
     1   0 1 0     -0.031456      1.366328      1.272915     -2.670700
     1   0 0 1      0.816679   -105.852360   -105.347232    212.016271

     2   2 0 0    -42.748580   -162.885176   -160.507303    280.643899
     2   1 1 0     -1.340734    -16.297364    -15.135280     30.091910
     2   1 0 1     -0.176243     10.469579     10.072536    -20.718358
     2   0 2 0    -44.383292   -182.285189   -178.546046    316.447943
     2   0 1 1     -0.262038     -0.273430     -0.640778      0.652170
     2   0 0 2    -41.891352   -505.578633   -498.588575    962.275856


 Task  times  cpu:      344.3s     wall:      349.2s


                                NWChem Input Module
                                -------------------


 Summary of allocated global arrays
-----------------------------------
  No active global arrays


MA_summarize_allocated_blocks: starting scan ...
heap block 'gridpts', handle 83, address 0x1143b9c0:
	type of elements:		double precision
	number of elements:		33554432
	address of client space:	0x1143ba40
	index for client space:		11600545
	total number of bytes:		268435592
MA_summarize_allocated_blocks: scan completed: 1 heap block, 0 stack blocks
MA usage statistics:

	allocation statistics:
					      heap	     stack
					      ----	     -----
	current number of blocks	         1	         0
	maximum number of blocks	        21	        53
	current total bytes		 268435592	         0
	maximum total bytes		 269297872	  46034440
	maximum total K-bytes		    269298	     46035
	maximum total M-bytes		       270	        47


                                     CITATION
                                     --------
                Please cite the following reference when publishing
                           results obtained with NWChem:

          E. Apra, E. J. Bylaska, W. A. de Jong, N. Govind, K. Kowalski,
       T. P. Straatsma, M. Valiev, H. J. J. van Dam, Y. Alexeev, J. Anchell,
       V. Anisimov, F. W. Aquino, R. Atta-Fynn, J. Autschbach, N. P. Bauman,
     J. C. Becca, D. E. Bernholdt, K. Bhaskaran-Nair, S. Bogatko, P. Borowski,
         J. Boschen, J. Brabec, A. Bruner, E. Cauet, Y. Chen, G. N. Chuev,
      C. J. Cramer, J. Daily, M. J. O. Deegan, T. H. Dunning Jr., M. Dupuis,
   K. G. Dyall, G. I. Fann, S. A. Fischer, A. Fonari, H. Fruchtl, L. Gagliardi,
      J. Garza, N. Gawande, S. Ghosh, K. Glaesemann, A. W. Gotz, J. Hammond,
       V. Helms, E. D. Hermes, K. Hirao, S. Hirata, M. Jacquelin, L. Jensen,
   B. G. Johnson, H. Jonsson, R. A. Kendall, M. Klemm, R. Kobayashi, V. Konkov,
      S. Krishnamoorthy, M. Krishnan, Z. Lin, R. D. Lins, R. J. Littlefield,
      A. J. Logsdail, K. Lopata, W. Ma, A. V. Marenich, J. Martin del Campo,
   D. Mejia-Rodriguez, J. E. Moore, J. M. Mullin, T. Nakajima, D. R. Nascimento,
    J. A. Nichols, P. J. Nichols, J. Nieplocha, A. Otero-de-la-Roza, B. Palmer,
    A. Panyala, T. Pirojsirikul, B. Peng, R. Peverati, J. Pittner, L. Pollack,
   R. M. Richard, P. Sadayappan, G. C. Schatz, W. A. Shelton, D. W. Silverstein,
   D. M. A. Smith, T. A. Soares, D. Song, M. Swart, H. L. Taylor, G. S. Thomas,
            V. Tipparaju, D. G. Truhlar, K. Tsemekhman, T. Van Voorhis,
      A. Vazquez-Mayagoitia, P. Verma, O. Villa, A. Vishnu, K. D. Vogiatzis,
        D. Wang, J. H. Weare, M. J. Williamson, T. L. Windus, K. Wolinski,
        A. T. Wong, Q. Wu, C. Yang, Q. Yu, M. Zacharias, Z. Zhang, Y. Zhao,
                                and R. J. Harrison
                        "NWChem: Past, present, and future
                         J. Chem. Phys. 152, 184102 (2020)
                               doi:10.1063/5.0004997

                                      AUTHORS
                                      -------
  E. Apra, E. J. Bylaska, N. Govind, K. Kowalski, M. Valiev, D. Mejia-Rodriguez,
       A. Kunitsa, N. P. Bauman, A. Panyala, W. A. de Jong, T. P. Straatsma,
   H. J. J. van Dam, D. Wang, T. L. Windus, J. Hammond, J. Autschbach, A. Woods,
    K. Bhaskaran-Nair, J. Brabec, K. Lopata, S. A. Fischer, S. Krishnamoorthy,
     M. Jacquelin, W. Ma, M. Klemm, O. Villa, Y. Chen, V. Anisimov, F. Aquino,
     S. Hirata, M. T. Hackler, E. Hermes, L. Jensen, J. E. Moore, J. C. Becca,
      V. Konjkov, T. Risthaus, M. Malagoli, A. Marenich, A. Otero-de-la-Roza,
        J. Mullin, P. Nichols, R. Peverati, J. Pittner, Y. Zhao, P.-D. Fan,
        A. Fonari, M. J. Williamson, R. J. Harrison, J. R. Rehr, M. Dupuis,
     D. Silverstein, D. M. A. Smith, J. Nieplocha, V. Tipparaju, M. Krishnan,
     B. E. Van Kuiken, A. Vazquez-Mayagoitia, M. Swart, Q. Wu, T. Van Voorhis,
     A. A. Auer, M. Nooijen, L. D. Crosby, E. Brown, G. Cisneros, G. I. Fann,
   H. Fruchtl, J. Garza, K. Hirao, R. A. Kendall, J. A. Nichols, K. Tsemekhman,
    K. Wolinski, J. Anchell, D. E. Bernholdt, P. Borowski, T. Clark, D. Clerc,
   H. Dachsel, M. J. O. Deegan, K. Dyall, D. Elwood, E. Glendening, M. Gutowski,
   A. C. Hess, J. Jaffe, B. G. Johnson, J. Ju, R. Kobayashi, R. Kutteh, Z. Lin,
   R. Littlefield, X. Long, B. Meng, T. Nakajima, S. Niu, L. Pollack, M. Rosing,
   K. Glaesemann, G. Sandrone, M. Stave, H. Taylor, G. Thomas, J. H. van Lenthe,
                               A. T. Wong, Z. Zhang.

 Total times  cpu:      344.4s     wall:      349.4s
