 argument  1 = proton/mol.nwi
                                         
                                         


             Northwest Computational Chemistry Package (NWChem) 7.2.2
             --------------------------------------------------------


                    Environmental Molecular Sciences Laboratory
                       Pacific Northwest National Laboratory
                                Richland, WA 99352

                              Copyright (c) 1994-2022
                       Pacific Northwest National Laboratory
                            Battelle Memorial Institute

             NWChem is an open-source computational chemistry package
                        distributed under the terms of the
                      Educational Community License (ECL) 2.0
             A copy of the license is included with this distribution
                              in the LICENSE.TXT file

                                  ACKNOWLEDGMENT
                                  --------------

            This software and its documentation were developed at the
            EMSL at Pacific Northwest National Laboratory, a multiprogram
            national laboratory, operated for the U.S. Department of Energy
            by Battelle under Contract Number DE-AC05-76RL01830. Support
            for this work was provided by the Department of Energy Office
            of Biological and Environmental Research, Office of Basic
            Energy Sciences, and the Office of Advanced Scientific Computing.


           Job information
           ---------------

    hostname        = r251.ib.bridges2.psc.edu
    program         = nwchem
    date            = Wed Oct  2 12:10:01 2024

    compiled        = Mon_Mar_18_17:03:37_2024
    source          = /ocean/projects/pscstaff/mmadrid/nwchem-7.2.2
    nwchem branch   = 7.2.2
    nwchem revision = 74936fb9
    ga revision     = 5.8.0
    use scalapack   = F
    input           = proton/mol.nwi
    prefix          = dft.
    data base       = .//dft.db
    status          = startup
    nproc           =       15
    time left       =     -1s



           Memory information
           ------------------

    heap     =   67108862 doubles =    512.0 Mbytes
    stack    =   67108859 doubles =    512.0 Mbytes
    global   =  134217728 doubles =   1024.0 Mbytes (distinct from heap & stack)
    total    =  268435449 doubles =   2048.0 Mbytes
    verify   = yes
    hardfail = no 


           Directory information
           ---------------------

  0 permanent = ./
  0 scratch   = /jet/home/hmt47/nwchem_scratch/




                                NWChem Input Module
                                -------------------


  library name resolved from: environment
  library file name is: </opt/packages/nwchem/nwchem7.2.2/share/nwchem/libraries/>
  


 Summary of "ao basis" -> "" (cartesian)
 ------------------------------------------------------------------------------
       Tag                 Description            Shells   Functions and Types
 ---------------- ------------------------------  ------  ---------------------
 *                        aug-cc-pVTZ                 on all atoms 


  pbe96 is a nonlocal functional; adding pw91lda local functional. 

 Scaling coordinates for geometry "geometry" by  1.889725989
 (inverse scale =  0.529177249)



                             Geometry "geometry" -> ""
                             -------------------------

 Output coordinates in angstroms (scale by  1.889725989 to convert to a.u.)

  No.       Tag          Charge          X              Y              Z
 ---- ---------------- ---------- -------------- -------------- --------------
    1 S                   16.0000    -0.08587927    -0.12718676    -0.04160558
    2 O                    8.0000    -0.26851897     1.38310769    -0.63202303
    3 O                    8.0000     1.23378082    -0.60870997    -0.43750321
    4 O                    8.0000    -0.06897272     0.14241757     1.56626158
    5 O                    8.0000    -1.32250070    -0.81677021    -0.31218576
    6 H                    1.0000     0.86957628     0.18957013     1.83737954
    7 H                    1.0000     0.61664831     1.68164079    -0.91911580

      Atomic Mass 
      ----------- 

      S                 31.972070
      O                 15.994910
      H                  1.007825


 Effective nuclear repulsion energy (a.u.)     283.3590360282

            Nuclear Dipole moment (a.u.) 
            ----------------------------
        X                 Y               Z
 ---------------- ---------------- ----------------
    -6.2314400255     1.2029681949     3.2672816212


            XYZ format geometry
            -------------------
     7
 geometry
 S                    -0.08587927    -0.12718676    -0.04160558
 O                    -0.26851897     1.38310769    -0.63202303
 O                     1.23378082    -0.60870997    -0.43750321
 O                    -0.06897272     0.14241757     1.56626158
 O                    -1.32250070    -0.81677021    -0.31218576
 H                     0.86957628     0.18957013     1.83737954
 H                     0.61664831     1.68164079    -0.91911580

 ==============================================================================
                                internuclear distances
 ------------------------------------------------------------------------------
       center one      |      center two      | atomic units |  angstroms
 ------------------------------------------------------------------------------
    2 O                |   1 S                |     3.08375  |     1.63185
    3 O                |   1 S                |     2.75803  |     1.45949
    4 O                |   1 S                |     3.08101  |     1.63040
    5 O                |   1 S                |     2.72407  |     1.44152
    6 H                |   4 O                |     1.84827  |     0.97806
    7 H                |   2 O                |     1.84678  |     0.97727
 ------------------------------------------------------------------------------
                         number of included internuclear distances:          6
 ==============================================================================



 ==============================================================================
                                 internuclear angles
 ------------------------------------------------------------------------------
        center 1       |       center 2       |       center 3       |  degrees
 ------------------------------------------------------------------------------
    2 O                |   1 S                |   3 O                |   107.96
    2 O                |   1 S                |   4 O                |   101.83
    2 O                |   1 S                |   5 O                |   106.19
    3 O                |   1 S                |   4 O                |   108.22
    3 O                |   1 S                |   5 O                |   124.54
    4 O                |   1 S                |   5 O                |   105.85
    1 S                |   2 O                |   7 H                |   106.72
    1 S                |   4 O                |   6 H                |   106.94
 ------------------------------------------------------------------------------
                            number of included internuclear angles:          8
 ==============================================================================





                           NWChem Geometry Optimization
                           ----------------------------


 maximum gradient threshold         (gmax) =   0.000450
 rms gradient threshold             (grms) =   0.000300
 maximum cartesian step threshold   (xmax) =   0.001800
 rms cartesian step threshold       (xrms) =   0.001200
 fixed trust radius                (trust) =   0.300000
 maximum step size to saddle      (sadstp) =   0.100000
 energy precision                  (eprec) =   5.0D-06
 maximum number of steps          (nptopt) =   40
 initial hessian option           (inhess) =    0
 line search option               (linopt) =    1
 hessian update option            (modupd) =    1
 saddle point option              (modsad) =    0
 initial eigen-mode to follow     (moddir) =    0
 initial variable to follow       (vardir) =    0
 follow first negative mode     (firstneg) =    T
 apply conjugacy                    (opcg) =    F
 source of zmatrix                         =           


          -------------------
          Energy Minimization
          -------------------


 Using old Hessian from previous optimization

          --------
          Step   0
          --------


                         Geometry "geometry" -> "geometry"
                         ---------------------------------

 Output coordinates in angstroms (scale by  1.889725989 to convert to a.u.)

  No.       Tag          Charge          X              Y              Z
 ---- ---------------- ---------- -------------- -------------- --------------
    1 S                   16.0000    -0.08587927    -0.12718676    -0.04160558
    2 O                    8.0000    -0.26851897     1.38310769    -0.63202303
    3 O                    8.0000     1.23378082    -0.60870997    -0.43750321
    4 O                    8.0000    -0.06897272     0.14241757     1.56626158
    5 O                    8.0000    -1.32250070    -0.81677021    -0.31218576
    6 H                    1.0000     0.86957628     0.18957013     1.83737954
    7 H                    1.0000     0.61664831     1.68164079    -0.91911580

      Atomic Mass 
      ----------- 

      S                 31.972070
      O                 15.994910
      H                  1.007825


 Effective nuclear repulsion energy (a.u.)     283.3590360282

            Nuclear Dipole moment (a.u.) 
            ----------------------------
        X                 Y               Z
 ---------------- ---------------- ----------------
    -6.2314400255     1.2029681949     3.2672816212


                                 NWChem DFT Module
                                 -----------------


                      Basis "ao basis" -> "ao basis" (cartesian)
                      -----
  S (Sulphur)
  -----------
            Exponent  Coefficients 
       -------------- ---------------------------------------------------------
  1 S  3.74100000E+05  0.000054
  1 S  5.60500000E+04  0.000421
  1 S  1.27600000E+04  0.002207
  1 S  3.61500000E+03  0.009193
  1 S  1.18300000E+03  0.032112
  1 S  4.28800000E+02  0.094668
  1 S  1.67800000E+02  0.223630
  1 S  6.94700000E+01  0.374393
  1 S  2.98400000E+01  0.329108
  1 S  1.27200000E+01  0.084704
  1 S  5.24400000E+00  0.000441
  1 S  2.21900000E+00  0.001648
  1 S  3.49000000E-01  0.000301

  2 S  3.74100000E+05 -0.000015
  2 S  5.60500000E+04 -0.000116
  2 S  1.27600000E+04 -0.000612
  2 S  3.61500000E+03 -0.002554
  2 S  1.18300000E+03 -0.009087
  2 S  4.28800000E+02 -0.027705
  2 S  1.67800000E+02 -0.072002
  2 S  6.94700000E+01 -0.146439
  2 S  2.98400000E+01 -0.195150
  2 S  1.27200000E+01  0.008192
  2 S  5.24400000E+00  0.516601
  2 S  2.21900000E+00  0.542178
  2 S  3.49000000E-01 -0.009181

  3 S  3.74100000E+05  0.000004
  3 S  5.60500000E+04  0.000034
  3 S  1.27600000E+04  0.000178
  3 S  3.61500000E+03  0.000741
  3 S  1.18300000E+03  0.002646
  3 S  4.28800000E+02  0.008075
  3 S  1.67800000E+02  0.021228
  3 S  6.94700000E+01  0.043832
  3 S  2.98400000E+01  0.061272
  3 S  1.27200000E+01 -0.003615
  3 S  5.24400000E+00 -0.204510
  3 S  2.21900000E+00 -0.381871
  3 S  3.49000000E-01  0.714147

  4 S  7.76700000E-01  1.000000

  5 S  1.32200000E-01  1.000000

  6 S  4.97000000E-02  1.000000

  7 P  5.74400000E+02  0.002423
  7 P  1.35800000E+02  0.019280
  7 P  4.31900000E+01  0.088540
  7 P  1.58700000E+01  0.254654
  7 P  6.20800000E+00  0.433984
  7 P  2.48300000E+00  0.354953
  7 P  3.22900000E-01 -0.005030

  8 P  5.74400000E+02 -0.000620
  8 P  1.35800000E+02 -0.004939
  8 P  4.31900000E+01 -0.023265
  8 P  1.58700000E+01 -0.068520
  8 P  6.20800000E+00 -0.123896
  8 P  2.48300000E+00 -0.096950
  8 P  3.22900000E-01  0.569394

  9 P  8.68800000E-01  1.000000

 10 P  1.09800000E-01  1.000000

 11 P  3.51000000E-02  1.000000

 12 D  2.69000000E-01  1.000000

 13 D  8.19000000E-01  1.000000

 14 D  1.01000000E-01  1.000000

 15 F  5.57000000E-01  1.000000

 16 F  2.18000000E-01  1.000000

  O (Oxygen)
  ----------
            Exponent  Coefficients 
       -------------- ---------------------------------------------------------
  1 S  1.53300000E+04  0.000508
  1 S  2.29900000E+03  0.003929
  1 S  5.22400000E+02  0.020243
  1 S  1.47300000E+02  0.079181
  1 S  4.75500000E+01  0.230687
  1 S  1.67600000E+01  0.433118
  1 S  6.20700000E+00  0.350260
  1 S  6.88200000E-01 -0.008154

  2 S  1.53300000E+04 -0.000115
  2 S  2.29900000E+03 -0.000895
  2 S  5.22400000E+02 -0.004636
  2 S  1.47300000E+02 -0.018724
  2 S  4.75500000E+01 -0.058463
  2 S  1.67600000E+01 -0.136463
  2 S  6.20700000E+00 -0.175740
  2 S  6.88200000E-01  0.603418

  3 S  1.75200000E+00  1.000000

  4 S  2.38400000E-01  1.000000

  5 S  7.37600000E-02  1.000000

  6 P  3.44600000E+01  0.015928
  6 P  7.74900000E+00  0.099740
  6 P  2.28000000E+00  0.310492

  7 P  7.15600000E-01  1.000000

  8 P  2.14000000E-01  1.000000

  9 P  5.97400000E-02  1.000000

 10 D  2.31400000E+00  1.000000

 11 D  6.45000000E-01  1.000000

 12 D  2.14000000E-01  1.000000

 13 F  1.42800000E+00  1.000000

 14 F  5.00000000E-01  1.000000

  H (Hydrogen)
  ------------
            Exponent  Coefficients 
       -------------- ---------------------------------------------------------
  1 S  3.38700000E+01  0.006068
  1 S  5.09500000E+00  0.045308
  1 S  1.15900000E+00  0.202822

  2 S  3.25800000E-01  1.000000

  3 S  1.02700000E-01  1.000000

  4 S  2.52600000E-02  1.000000

  5 P  1.40700000E+00  1.000000

  6 P  3.88000000E-01  1.000000

  7 P  1.02000000E-01  1.000000

  8 D  1.05700000E+00  1.000000

  9 D  2.47000000E-01  1.000000



 Summary of "ao basis" -> "ao basis" (cartesian)
 ------------------------------------------------------------------------------
       Tag                 Description            Shells   Functions and Types
 ---------------- ------------------------------  ------  ---------------------
 S                        aug-cc-pVTZ               16       59   6s5p3d2f
 O                        aug-cc-pVTZ               14       55   5s4p3d2f
 H                        aug-cc-pVTZ                9       25   4s3p2d




 Summary of "ao basis" -> "ao basis" (cartesian)
 ------------------------------------------------------------------------------
       Tag                 Description            Shells   Functions and Types
 ---------------- ------------------------------  ------  ---------------------
 S                        aug-cc-pVTZ               16       59   6s5p3d2f
 O                        aug-cc-pVTZ               14       55   5s4p3d2f
 H                        aug-cc-pVTZ                9       25   4s3p2d


  Caching 1-el integrals 

            General Information
            -------------------
          SCF calculation type: DFT
          Wavefunction type:  closed shell.
          No. of atoms     :     7
          No. of electrons :    50
           Alpha electrons :    25
            Beta electrons :    25
          Charge           :     0
          Spin multiplicity:     1
          Use of symmetry is: off; symmetry adaption is: off
          Maximum number of iterations: 200
          AO basis - number of functions:   329
                     number of shells:    90
          Convergence on energy requested:  1.00D-06
          Convergence on density requested:  1.00D-05
          Convergence on gradient requested:  5.00D-04

              XC Information
              --------------
          PerdewBurkeErnzerhof Exchange Functional  1.000          
            Perdew 1991 LDA Correlation Functional  1.000 local    
           PerdewBurkeErnz. Correlation Functional  1.000 non-local

             Grid Information
             ----------------
          Grid used for XC integration:  medium    
          Radial quadrature: Mura-Knowles        
          Angular quadrature: Lebedev. 
          Tag              B.-S. Rad. Rad. Pts. Rad. Cut. Ang. Pts.
          ---              ---------- --------- --------- ---------
          S                   1.00       88          13.0       590
          O                   0.60       49          13.0       434
          H                   0.35       45          14.0       434
          Grid pruning is: on 
          Number of quadrature shells:   374
          Spatial weights used:  Erf1

          Convergence Information
          -----------------------
          Convergence aids based upon iterative change in 
          total energy or number of iterations. 
          Levelshifting, if invoked, occurs when the 
          HOMO/LUMO gap drops below (HL_TOL):  1.00D-02
          DIIS, if invoked, will attempt to extrapolate 
          using up to (NFOCK): 10 stored Fock matrices.

                    Damping(40%)  Levelshifting(0.0)       DIIS
                  --------------- ------------------- ---------------
          dE  on:    start            0.00D+00            start   
          dE off:  200 iters          0.00D+00          200 iters 


      Screening Tolerance Information
      -------------------------------
          Density screening/tol_rho:  1.00D-10
          AO Gaussian exp screening on grid/accAOfunc:  14
          CD Gaussian exp screening on grid/accCDfunc:  20
          XC Gaussian exp screening on grid/accXCfunc:  20
          Schwarz screening/accCoul:  1.00D-08


 Forcing the number of linearly dependent vectors to be  0

      Superposition of Atomic Density Guess
      -------------------------------------

 Sum of atomic energies:        -697.61177759
   Time after variat. SCF:      0.8
   Time prior to 1st pass:      0.8

 Grid_pts file          = /jet/home/hmt47/nwchem_scratch//dft.gridpts.00
 Record size in doubles =  12289        No. of grid_pts per rec  =   3070
 Max. records in memory =      7        Max. recs in file   =  67550051


           Memory utilization after 1st SCF pass: 
           Heap Space remaining (MW):       33.46            33460030
          Stack Space remaining (MW):       67.11            67107092

   convergence    iter        energy       DeltaE   RMS-Dens  Diis-err    time
 ---------------- ----- ----------------- --------- --------- ---------  ------
 d=40,ls=0.0,diis     1   -701.1051040384 -9.84D+02  1.19D-02  6.38D+01     1.7
 d=40,ls=0.0,diis     2   -700.3435529573  7.62D-01  9.96D-03  1.11D+01     6.4
 d=40,ls=0.0,diis     3   -699.5893454361  7.54D-01  2.82D-03  5.14D+00    11.1
 d=40,ls=0.0,diis     4   -699.8659558931 -2.77D-01  1.10D-03  9.70D-01    15.8
 d=40,ls=0.0,diis     5   -699.9252957567 -5.93D-02  4.64D-04  2.03D-01    20.5
  Resetting Diis
 d=40,ls=0.0,diis     6   -699.9428386614 -1.75D-02  2.08D-04  4.87D-02    25.1
 d=40,ls=0.0,diis     7   -699.9489490878 -6.11D-03  3.92D-04  1.19D-02    29.8
 d=40,ls=0.0,diis     8   -699.9495441260 -5.95D-04  1.45D-04  1.32D-02    34.5
 d=40,ls=0.0,diis     9   -699.9514352543 -1.89D-03  6.15D-05  2.26D-03    39.2
 d=40,ls=0.0,diis    10   -699.9520370210 -6.02D-04  3.08D-05  4.88D-04    43.9
 d=40,ls=0.0,diis    11   -699.9522707560 -2.34D-04  1.21D-05  7.19D-05    48.6
 d=40,ls=0.0,diis    12   -699.9523578691 -8.71D-05  3.93D-06  9.38D-06    53.3
 d=40,ls=0.0,diis    13   -699.9523917036 -3.38D-05  1.39D-06  1.32D-06    58.0
 d=40,ls=0.0,diis    14   -699.9524051136 -1.34D-05  5.95D-07  2.14D-07    62.6
 d=40,ls=0.0,diis    15   -699.9524104632 -5.35D-06  3.06D-07  3.59D-08    67.3
 d=40,ls=0.0,diis    16   -699.9524126006 -2.14D-06  1.81D-07  5.87D-09    72.0
 d=40,ls=0.0,diis    17   -699.9524134552 -8.55D-07  1.25D-07  9.54D-10    76.7


         Total DFT energy =     -699.952413455229
      One electron energy =    -1527.101704612804
           Coulomb energy =      604.174127668202
    Exchange-Corr. energy =      -60.383872538784
 Nuclear repulsion energy =      283.359036028157

 Numeric. integr. density =       50.000000730029

     Total iterative time =     75.9s



                       DFT Final Molecular Orbital Analysis
                       ------------------------------------

 Vector    1  Occ=2.000000D+00  E=-8.832699D+01
              MO Center= -8.6D-02, -1.3D-01, -4.2D-02, r^2= 3.6D-03
   Bfn.  Coefficient  Atom+Function         Bfn.  Coefficient  Atom+Function  
  ----- ------------  ---------------      ----- ------------  ---------------
     1      1.005815  1 S  s                  5     -0.170898  1 S  s          
     3      0.050385  1 S  s                  2      0.037941  1 S  s          
    63      0.037389  2 O  s                173      0.037386  4 O  s          
   118      0.035125  3 O  s                183     -0.032762  4 O  pz         
   228      0.031362  5 O  s                 72     -0.030073  2 O  py         

 Vector    2  Occ=2.000000D+00  E=-1.883647D+01
              MO Center= -6.9D-02,  1.4D-01,  1.6D+00, r^2= 1.6D-02
   Bfn.  Coefficient  Atom+Function         Bfn.  Coefficient  Atom+Function  
  ----- ------------  ---------------      ----- ------------  ---------------
   170      0.981795  4 O  s                173     -0.066112  4 O  s          
   172      0.063986  4 O  s                  5      0.049518  1 S  s          
     6      0.032537  1 S  s          

 Vector    3  Occ=2.000000D+00  E=-1.883607D+01
              MO Center= -2.7D-01,  1.4D+00, -6.3D-01, r^2= 1.6D-02
   Bfn.  Coefficient  Atom+Function         Bfn.  Coefficient  Atom+Function  
  ----- ------------  ---------------      ----- ------------  ---------------
    60      0.981835  2 O  s                 63     -0.065502  2 O  s          
    62      0.064049  2 O  s                  5      0.047113  1 S  s          
     6      0.032823  1 S  s          

 Vector    4  Occ=2.000000D+00  E=-1.878941D+01
              MO Center=  1.2D+00, -6.1D-01, -4.4D-01, r^2= 1.5D-02
   Bfn.  Coefficient  Atom+Function         Bfn.  Coefficient  Atom+Function  
  ----- ------------  ---------------      ----- ------------  ---------------
   115      0.980082  3 O  s                118     -0.076655  3 O  s          
   117      0.065372  3 O  s                 16     -0.062865  1 S  px         
     6      0.051603  1 S  s                 64     -0.034706  2 O  s          
   174     -0.033529  4 O  s                147      0.029010  3 O  dyy        
   149      0.028820  3 O  dzz        

 Vector    5  Occ=2.000000D+00  E=-1.878468D+01
              MO Center= -1.3D+00, -8.2D-01, -3.1D-01, r^2= 1.5D-02
   Bfn.  Coefficient  Atom+Function         Bfn.  Coefficient  Atom+Function  
  ----- ------------  ---------------      ----- ------------  ---------------
   225      0.979208  5 O  s                228     -0.078077  5 O  s          
   227      0.063862  5 O  s                  5      0.043203  1 S  s          
    16      0.042262  1 S  px         

 Vector    6  Occ=2.000000D+00  E=-7.909403D+00
              MO Center= -8.6D-02, -1.3D-01, -4.1D-02, r^2= 7.7D-02
   Bfn.  Coefficient  Atom+Function         Bfn.  Coefficient  Atom+Function  
  ----- ------------  ---------------      ----- ------------  ---------------
     2      0.890878  1 S  s                  5      0.144612  1 S  s          
     4      0.117015  1 S  s                  3     -0.059067  1 S  s          
   118     -0.046481  3 O  s                228     -0.044328  5 O  s          
    63     -0.041391  2 O  s                173     -0.041352  4 O  s          
   183      0.036346  4 O  pz                72      0.033293  2 O  py         

 Vector    7  Occ=2.000000D+00  E=-5.932018D+00
              MO Center= -8.6D-02, -1.3D-01, -4.2D-02, r^2= 6.9D-02
   Bfn.  Coefficient  Atom+Function         Bfn.  Coefficient  Atom+Function  
  ----- ------------  ---------------      ----- ------------  ---------------
     9      0.939129  1 S  pz                 8     -0.533721  1 S  py         
    12      0.218858  1 S  pz                11     -0.124730  1 S  py         
     7      0.086920  1 S  px                42     -0.080837  1 S  fxxz       
    47     -0.075504  1 S  fyyz              49     -0.075695  1 S  fzzz       
    63      0.059200  2 O  s                173     -0.058884  4 O  s          

 Vector    8  Occ=2.000000D+00  E=-5.931314D+00
              MO Center= -8.6D-02, -1.3D-01, -4.2D-02, r^2= 6.9D-02
   Bfn.  Coefficient  Atom+Function         Bfn.  Coefficient  Atom+Function  
  ----- ------------  ---------------      ----- ------------  ---------------
     8      0.925508  1 S  py                 9      0.546364  1 S  pz         
    11      0.234218  1 S  py                 7     -0.219526  1 S  px         
    12      0.139810  1 S  pz               118      0.121587  3 O  s          
     5     -0.107901  1 S  s                 46     -0.079105  1 S  fyyy       
    48     -0.078727  1 S  fyzz             126     -0.071758  3 O  px         

 Vector    9  Occ=2.000000D+00  E=-5.928548D+00
              MO Center= -8.6D-02, -1.3D-01, -4.2D-02, r^2= 6.9D-02
   Bfn.  Coefficient  Atom+Function         Bfn.  Coefficient  Atom+Function  
  ----- ------------  ---------------      ----- ------------  ---------------
     7      1.115563  1 S  px                10      0.368133  1 S  px         
     8      0.231431  1 S  py               228      0.160222  5 O  s          
    45     -0.109089  1 S  fxzz              43     -0.104180  1 S  fxyy       
    40     -0.102849  1 S  fxxx             118     -0.100084  3 O  s          
   236      0.078532  5 O  px                23     -0.076036  1 S  dxy        

 Vector   10  Occ=2.000000D+00  E=-1.104195D+00
              MO Center= -4.6D-02,  2.3D-02,  4.0D-02, r^2= 1.7D+00
   Bfn.  Coefficient  Atom+Function         Bfn.  Coefficient  Atom+Function  
  ----- ------------  ---------------      ----- ------------  ---------------
     3      0.371207  1 S  s                  5     -0.293914  1 S  s          
   118      0.224518  3 O  s                228      0.223409  5 O  s          
   171      0.188974  4 O  s                173      0.189398  4 O  s          
    61      0.188017  2 O  s                 63      0.188502  2 O  s          
   116      0.175537  3 O  s                226      0.171938  5 O  s          

 Vector   11  Occ=2.000000D+00  E=-9.947976D-01
              MO Center=  6.3D-04,  6.8D-01,  4.1D-01, r^2= 2.0D+00
   Bfn.  Coefficient  Atom+Function         Bfn.  Coefficient  Atom+Function  
  ----- ------------  ---------------      ----- ------------  ---------------
   171     -0.335877  4 O  s                 61      0.333965  2 O  s          
   173     -0.209772  4 O  s                 63      0.208691  2 O  s          
   172     -0.093022  4 O  s                 62      0.092491  2 O  s          
    15     -0.082520  1 S  pz               280     -0.067949  6 H  s          
   305      0.067990  7 H  s                  9      0.059111  1 S  pz         

 Vector   12  Occ=2.000000D+00  E=-9.745802D-01
              MO Center= -3.0D-01,  5.9D-02,  7.7D-02, r^2= 2.3D+00
   Bfn.  Coefficient  Atom+Function         Bfn.  Coefficient  Atom+Function  
  ----- ------------  ---------------      ----- ------------  ---------------
   226      0.280327  5 O  s                 61     -0.246481  2 O  s          
   171     -0.244592  4 O  s                228      0.220049  5 O  s          
   116      0.138609  3 O  s                 63     -0.129302  2 O  s          
   173     -0.127301  4 O  s                  3      0.116148  1 S  s          
     5     -0.107405  1 S  s                118      0.107458  3 O  s          

 Vector   13  Occ=2.000000D+00  E=-9.615564D-01
              MO Center=  2.4D-01, -5.0D-01, -2.8D-01, r^2= 1.5D+00
   Bfn.  Coefficient  Atom+Function         Bfn.  Coefficient  Atom+Function  
  ----- ------------  ---------------      ----- ------------  ---------------
   116      0.367339  3 O  s                226     -0.266992  5 O  s          
   118      0.251504  3 O  s                 13      0.169927  1 S  px         
   228     -0.168458  5 O  s                  7     -0.126914  1 S  px         
   117      0.101050  3 O  s                 40      0.082522  1 S  fxxx       
   119      0.078053  3 O  s                227     -0.073894  5 O  s          

 Vector   14  Occ=2.000000D+00  E=-6.439099D-01
              MO Center= -6.1D-02,  3.7D-01,  2.4D-01, r^2= 2.6D+00
   Bfn.  Coefficient  Atom+Function         Bfn.  Coefficient  Atom+Function  
  ----- ------------  ---------------      ----- ------------  ---------------
     3      0.330697  1 S  s                226     -0.184346  5 O  s          
   116     -0.135602  3 O  s                177     -0.133822  4 O  pz         
   180     -0.128751  4 O  pz                66     -0.121713  2 O  py         
    69     -0.116293  2 O  py               228     -0.116560  5 O  s          
    14      0.110484  1 S  py               118     -0.109420  3 O  s          

 Vector   15  Occ=2.000000D+00  E=-5.614820D-01
              MO Center= -4.7D-02,  5.1D-01,  3.1D-01, r^2= 2.3D+00
   Bfn.  Coefficient  Atom+Function         Bfn.  Coefficient  Atom+Function  
  ----- ------------  ---------------      ----- ------------  ---------------
    15      0.188274  1 S  pz                66      0.165601  2 O  py         
    69      0.165987  2 O  py               180     -0.154655  4 O  pz         
   177     -0.153707  4 O  pz               281     -0.128010  6 H  s          
   306      0.127836  7 H  s                175     -0.120598  4 O  px         
     9     -0.112526  1 S  pz               178     -0.110860  4 O  px         

 Vector   16  Occ=2.000000D+00  E=-5.005481D-01
              MO Center=  4.0D-01, -1.6D-01, -1.2D-01, r^2= 2.6D+00
   Bfn.  Coefficient  Atom+Function         Bfn.  Coefficient  Atom+Function  
  ----- ------------  ---------------      ----- ------------  ---------------
   116     -0.243941  3 O  s                  3      0.235760  1 S  s          
     6      0.190060  1 S  s                118     -0.189212  3 O  s          
   120     -0.161897  3 O  px               123     -0.154944  3 O  px         
    64     -0.131952  2 O  s                119     -0.131763  3 O  s          
   174     -0.129112  4 O  s                175      0.118658  4 O  px         

 Vector   17  Occ=2.000000D+00  E=-4.636633D-01
              MO Center= -4.7D-01, -1.7D-01, -2.5D-03, r^2= 2.6D+00
   Bfn.  Coefficient  Atom+Function         Bfn.  Coefficient  Atom+Function  
  ----- ------------  ---------------      ----- ------------  ---------------
   226      0.201755  5 O  s                  5      0.162608  1 S  s          
   230     -0.163010  5 O  px               233     -0.160097  5 O  px         
   173     -0.149277  4 O  s                 14      0.144654  1 S  py         
    63     -0.138099  2 O  s                228      0.127362  5 O  s          
    13      0.121911  1 S  px               236     -0.120027  5 O  px         

 Vector   18  Occ=2.000000D+00  E=-4.400669D-01
              MO Center=  3.1D-02,  4.9D-01,  2.5D-01, r^2= 2.6D+00
   Bfn.  Coefficient  Atom+Function         Bfn.  Coefficient  Atom+Function  
  ----- ------------  ---------------      ----- ------------  ---------------
    63      0.181039  2 O  s                 65     -0.180022  2 O  px         
   175      0.176770  4 O  px                68     -0.171948  2 O  px         
   173     -0.170639  4 O  s                178      0.168789  4 O  px         
    61      0.148815  2 O  s                171     -0.143281  4 O  s          
    64      0.122337  2 O  s                174     -0.119453  4 O  s          

 Vector   19  Occ=2.000000D+00  E=-4.075731D-01
              MO Center= -9.8D-02, -2.4D-01, -8.1D-02, r^2= 3.2D+00
   Bfn.  Coefficient  Atom+Function         Bfn.  Coefficient  Atom+Function  
  ----- ------------  ---------------      ----- ------------  ---------------
   228     -0.199552  5 O  s                120      0.191723  3 O  px         
   123      0.184010  3 O  px                13     -0.173754  1 S  px         
     5      0.148929  1 S  s                173     -0.149058  4 O  s          
    63     -0.144309  2 O  s                230      0.139803  5 O  px         
   233      0.130885  5 O  px               231      0.128112  5 O  py         

 Vector   20  Occ=2.000000D+00  E=-3.697549D-01
              MO Center= -1.4D-01,  6.1D-01,  3.9D-01, r^2= 2.4D+00
   Bfn.  Coefficient  Atom+Function         Bfn.  Coefficient  Atom+Function  
  ----- ------------  ---------------      ----- ------------  ---------------
   179      0.247496  4 O  py               176      0.245683  4 O  py         
    70      0.200528  2 O  pz                67      0.197945  2 O  pz         
   182      0.147890  4 O  py                66      0.144226  2 O  py         
    69      0.143158  2 O  py                26      0.130781  1 S  dyz        
    73      0.117197  2 O  pz                32      0.110993  1 S  dyz        

 Vector   21  Occ=2.000000D+00  E=-3.500348D-01
              MO Center= -4.0D-01,  2.0D-01,  1.7D-01, r^2= 2.7D+00
   Bfn.  Coefficient  Atom+Function         Bfn.  Coefficient  Atom+Function  
  ----- ------------  ---------------      ----- ------------  ---------------
    70      0.191425  2 O  pz                67      0.189564  2 O  pz         
   177      0.175067  4 O  pz               180      0.174763  4 O  pz         
   232      0.163802  5 O  pz               235      0.162458  5 O  pz         
   179     -0.132558  4 O  py               176     -0.130019  4 O  py         
   238      0.109611  5 O  pz                73      0.106389  2 O  pz         

 Vector   22  Occ=2.000000D+00  E=-3.421857D-01
              MO Center= -1.1D-01, -4.8D-01, -2.4D-01, r^2= 2.6D+00
   Bfn.  Coefficient  Atom+Function         Bfn.  Coefficient  Atom+Function  
  ----- ------------  ---------------      ----- ------------  ---------------
   231      0.200163  5 O  py               234      0.197553  5 O  py         
   121      0.195064  3 O  py               124      0.192208  3 O  py         
    28      0.121606  1 S  dxx              237      0.118478  5 O  py         
   127      0.117450  3 O  py               232      0.115862  5 O  pz         
   122      0.114976  3 O  pz               235      0.115064  5 O  pz         

 Vector   23  Occ=2.000000D+00  E=-3.091171D-01
              MO Center=  5.2D-01, -3.8D-01, -2.4D-01, r^2= 2.3D+00
   Bfn.  Coefficient  Atom+Function         Bfn.  Coefficient  Atom+Function  
  ----- ------------  ---------------      ----- ------------  ---------------
   125      0.271512  3 O  pz               122      0.269008  3 O  pz         
   128      0.194388  3 O  pz               124     -0.156659  3 O  py         
   121     -0.155258  3 O  py               235     -0.140704  5 O  pz         
   232     -0.138001  5 O  pz               127     -0.113713  3 O  py         
    30      0.106290  1 S  dxz               65      0.081800  2 O  px         

 Vector   24  Occ=2.000000D+00  E=-3.012678D-01
              MO Center= -5.2D-01,  6.1D-02,  1.2D-01, r^2= 2.7D+00
   Bfn.  Coefficient  Atom+Function         Bfn.  Coefficient  Atom+Function  
  ----- ------------  ---------------      ----- ------------  ---------------
   235      0.232917  5 O  pz               232      0.230308  5 O  pz         
   179      0.217334  4 O  py               176      0.212262  4 O  py         
    70     -0.180058  2 O  pz               238      0.179106  5 O  pz         
    67     -0.176920  2 O  pz               182      0.153869  4 O  py         
    73     -0.149298  2 O  pz                69     -0.120766  2 O  py         

 Vector   25  Occ=2.000000D+00  E=-2.982555D-01
              MO Center= -5.2D-02, -4.8D-01, -2.7D-01, r^2= 2.5D+00
   Bfn.  Coefficient  Atom+Function         Bfn.  Coefficient  Atom+Function  
  ----- ------------  ---------------      ----- ------------  ---------------
   121      0.186527  3 O  py               124      0.186320  3 O  py         
   230      0.179792  5 O  px               233      0.179996  5 O  px         
   231     -0.177796  5 O  py               234     -0.178494  5 O  py         
   237     -0.167542  5 O  py               127      0.165121  3 O  py         
   120      0.148884  3 O  px               123      0.149579  3 O  px         

 Vector   26  Occ=0.000000D+00  E=-6.384579D-02
              MO Center=  6.9D-01,  7.6D-01,  3.8D-01, r^2= 7.1D+00
   Bfn.  Coefficient  Atom+Function         Bfn.  Coefficient  Atom+Function  
  ----- ------------  ---------------      ----- ------------  ---------------
     5      0.562787  1 S  s                  6      0.331943  1 S  s          
   283      0.320783  6 H  s                308      0.319370  7 H  s          
   173     -0.310349  4 O  s                 63     -0.305704  2 O  s          
   118     -0.251390  3 O  s                  3      0.235222  1 S  s          
   228     -0.224341  5 O  s                229     -0.219362  5 O  s          

 Vector   27  Occ=0.000000D+00  E=-1.978983D-02
              MO Center=  1.1D+00,  1.1D+00,  5.2D-01, r^2= 1.1D+01
   Bfn.  Coefficient  Atom+Function         Bfn.  Coefficient  Atom+Function  
  ----- ------------  ---------------      ----- ------------  ---------------
   283      1.021926  6 H  s                308     -1.008285  7 H  s          
   174      0.431873  4 O  s                 64     -0.397300  2 O  s          
    21     -0.228848  1 S  pz                18     -0.220262  1 S  pz         
   186     -0.172200  4 O  pz                63      0.155831  2 O  s          
   173     -0.141575  4 O  s                290      0.135017  6 H  px         

 Vector   28  Occ=0.000000D+00  E=-5.757621D-03
              MO Center=  6.8D-01,  7.1D-01,  2.8D-01, r^2= 6.1D+00
   Bfn.  Coefficient  Atom+Function         Bfn.  Coefficient  Atom+Function  
  ----- ------------  ---------------      ----- ------------  ---------------
     6      2.076596  1 S  s                  5      1.468224  1 S  s          
   229     -0.669733  5 O  s                308     -0.556143  7 H  s          
   119     -0.522719  3 O  s                283     -0.492029  6 H  s          
    75      0.465496  2 O  py               186      0.461868  4 O  pz         
     3      0.417687  1 S  s                 19     -0.419054  1 S  px         

 Vector   29  Occ=0.000000D+00  E= 1.373771D-02
              MO Center=  1.2D-01, -1.4D-01, -7.1D-02, r^2= 3.6D+00
   Bfn.  Coefficient  Atom+Function         Bfn.  Coefficient  Atom+Function  
  ----- ------------  ---------------      ----- ------------  ---------------
    18      0.633404  1 S  pz               283     -0.548844  6 H  s          
   308      0.486729  7 H  s                 21      0.479723  1 S  pz         
   282     -0.291795  6 H  s                 75     -0.282945  2 O  py         
   186      0.278040  4 O  pz                12      0.270218  1 S  pz         
    15      0.260136  1 S  pz               131     -0.253416  3 O  pz         

 Vector   30  Occ=0.000000D+00  E= 1.490413D-02
              MO Center=  9.4D-02, -5.9D-01, -3.2D-01, r^2= 6.6D+00
   Bfn.  Coefficient  Atom+Function         Bfn.  Coefficient  Atom+Function  
  ----- ------------  ---------------      ----- ------------  ---------------
     6      1.700527  1 S  s                229     -1.333780  5 O  s          
   119     -1.189114  3 O  s                 20     -1.017662  1 S  py         
    17     -0.960173  1 S  py                21     -0.483827  1 S  pz         
   129      0.469347  3 O  px                18     -0.411605  1 S  pz         
   239     -0.383179  5 O  px               307      0.312361  7 H  s          

 Vector   31  Occ=0.000000D+00  E= 3.104436D-02
              MO Center= -7.5D-01,  6.3D-01,  4.3D-01, r^2= 1.5D+01
   Bfn.  Coefficient  Atom+Function         Bfn.  Coefficient  Atom+Function  
  ----- ------------  ---------------      ----- ------------  ---------------
    19      2.572854  1 S  px               119     -2.114699  3 O  s          
     6      1.516512  1 S  s                 16      1.463704  1 S  px         
   229      0.778169  5 O  s                 55     -0.550790  1 S  fxzz       
   184     -0.537694  4 O  px                53     -0.531160  1 S  fxyy       
   283     -0.528091  6 H  s                308     -0.526777  7 H  s          

 Vector   32  Occ=0.000000D+00  E= 4.203863D-02
              MO Center=  1.3D-01, -7.8D-01, -3.1D-01, r^2= 1.3D+01
   Bfn.  Coefficient  Atom+Function         Bfn.  Coefficient  Atom+Function  
  ----- ------------  ---------------      ----- ------------  ---------------
     6      6.302724  1 S  s                 64     -2.449443  2 O  s          
   174     -2.300868  4 O  s                 20      2.259959  1 S  py         
    21      1.132000  1 S  pz               283     -1.007457  6 H  s          
   308     -0.943660  7 H  s                 19      0.811811  1 S  px         
   119     -0.640329  3 O  s                  5     -0.512080  1 S  s          

 Vector   33  Occ=0.000000D+00  E= 4.437161D-02
              MO Center=  8.9D-01,  1.0D+00,  4.6D-01, r^2= 1.4D+01
   Bfn.  Coefficient  Atom+Function         Bfn.  Coefficient  Atom+Function  
  ----- ------------  ---------------      ----- ------------  ---------------
     6      7.711421  1 S  s                229     -2.396305  5 O  s          
   119     -1.588679  3 O  s                308     -1.330935  7 H  s          
   283     -1.278773  6 H  s                307     -1.077138  7 H  s          
   282     -1.053533  6 H  s                239     -0.531792  5 O  px         
   174     -0.503396  4 O  s                 16     -0.495998  1 S  px         

 Vector   34  Occ=0.000000D+00  E= 5.397203D-02
              MO Center= -4.0D-01, -4.5D-01, -2.6D-01, r^2= 1.4D+01
   Bfn.  Coefficient  Atom+Function         Bfn.  Coefficient  Atom+Function  
  ----- ------------  ---------------      ----- ------------  ---------------
   174      3.928182  4 O  s                 64     -3.566946  2 O  s          
   282     -2.545323  6 H  s                307      2.426095  7 H  s          
    21     -2.376768  1 S  pz                20      1.199605  1 S  py         
   290      0.855644  6 H  px               184      0.780470  4 O  px         
   315     -0.769603  7 H  px                74     -0.696405  2 O  px         

 Vector   35  Occ=0.000000D+00  E= 6.406786D-02
              MO Center=  1.1D+00,  1.1D+00,  6.7D-01, r^2= 2.0D+01
   Bfn.  Coefficient  Atom+Function         Bfn.  Coefficient  Atom+Function  
  ----- ------------  ---------------      ----- ------------  ---------------
   283     -3.015258  6 H  s                308      2.930253  7 H  s          
    21      2.808524  1 S  pz                20     -1.534400  1 S  py         
   282     -1.374943  6 H  s                307      1.362162  7 H  s          
   184      0.720071  4 O  px                74     -0.652701  2 O  px         
    18      0.636371  1 S  pz               290      0.522194  6 H  px         

 Vector   36  Occ=0.000000D+00  E= 6.947898D-02
              MO Center=  4.3D-01,  5.3D-01,  1.6D-01, r^2= 9.8D+00
   Bfn.  Coefficient  Atom+Function         Bfn.  Coefficient  Atom+Function  
  ----- ------------  ---------------      ----- ------------  ---------------
     6     11.499534  1 S  s                119     -3.779134  3 O  s          
   229     -3.581040  5 O  s                174     -2.706618  4 O  s          
    64     -2.559128  2 O  s                308     -1.197725  7 H  s          
   129      0.941322  3 O  px               283     -0.903605  6 H  s          
   282      0.812549  6 H  s                 75      0.760167  2 O  py         

 Vector   37  Occ=0.000000D+00  E= 8.754189D-02
              MO Center= -1.2D-01, -1.4D-01,  6.0D-01, r^2= 1.4D+01
   Bfn.  Coefficient  Atom+Function         Bfn.  Coefficient  Atom+Function  
  ----- ------------  ---------------      ----- ------------  ---------------
    18      3.353431  1 S  pz               229      2.928933  5 O  s          
    64      2.336144  2 O  s                186      2.242601  4 O  pz         
   307     -2.190498  7 H  s                 17      2.138510  1 S  py         
   174     -1.662425  4 O  s                 34     -1.415760  1 S  dxx        
   119      1.419419  3 O  s                283     -1.234299  6 H  s          

 Vector   38  Occ=0.000000D+00  E= 8.766364D-02
              MO Center= -3.7D-02,  7.9D-01, -2.4D-01, r^2= 1.5D+01
   Bfn.  Coefficient  Atom+Function         Bfn.  Coefficient  Atom+Function  
  ----- ------------  ---------------      ----- ------------  ---------------
    64      4.185934  2 O  s                 17     -3.484302  1 S  py         
   174     -2.789160  4 O  s                 75     -2.230508  2 O  py         
    18      1.876419  1 S  pz               308      1.624237  7 H  s          
   282      1.542673  6 H  s                229     -1.389961  5 O  s          
    76      1.374802  2 O  pz               186      1.327122  4 O  pz         

 Vector   39  Occ=0.000000D+00  E= 8.906298D-02
              MO Center=  3.7D-01,  5.6D-02,  4.8D-02, r^2= 1.3D+01
   Bfn.  Coefficient  Atom+Function         Bfn.  Coefficient  Atom+Function  
  ----- ------------  ---------------      ----- ------------  ---------------
   174      4.955306  4 O  s                  6     -3.990727  1 S  s          
    64      3.886211  2 O  s                282     -3.326827  6 H  s          
   307     -3.073297  7 H  s                  5     -2.641206  1 S  s          
   119      2.482972  3 O  s                184      1.602145  4 O  px         
   229      1.529303  5 O  s                 74      1.487899  2 O  px         

 Vector   40  Occ=0.000000D+00  E= 9.487335D-02
              MO Center= -3.9D-01, -1.1D-01,  2.0D-02, r^2= 1.3D+01
   Bfn.  Coefficient  Atom+Function         Bfn.  Coefficient  Atom+Function  
  ----- ------------  ---------------      ----- ------------  ---------------
     6      5.134841  1 S  s                119     -3.115006  3 O  s          
    64     -2.966608  2 O  s                174     -2.846559  4 O  s          
    16      1.695831  1 S  px                 5      1.644612  1 S  s          
   229      1.376571  5 O  s                 75      1.354690  2 O  py         
    17      1.198192  1 S  py               307      1.196903  7 H  s          

 Vector   41  Occ=0.000000D+00  E= 1.314155D-01
              MO Center=  1.8D-01,  1.4D-01,  6.2D-02, r^2= 1.6D+01
   Bfn.  Coefficient  Atom+Function         Bfn.  Coefficient  Atom+Function  
  ----- ------------  ---------------      ----- ------------  ---------------
     5      6.469130  1 S  s                119     -4.987124  3 O  s          
   229     -3.742449  5 O  s                 34      3.393462  1 S  dxx        
    37      2.821956  1 S  dyy               39      2.832354  1 S  dzz        
   129      2.671954  3 O  px                 6      2.283170  1 S  s          
   282     -2.285573  6 H  s                307     -2.288387  7 H  s          

 Vector   42  Occ=0.000000D+00  E= 1.465577D-01
              MO Center= -3.3D-01, -2.7D-01,  6.5D-03, r^2= 1.5D+01
   Bfn.  Coefficient  Atom+Function         Bfn.  Coefficient  Atom+Function  
  ----- ------------  ---------------      ----- ------------  ---------------
   174      4.439330  4 O  s                 64     -3.816823  2 O  s          
    36      2.962232  1 S  dxz              186     -2.351894  4 O  pz         
   307      2.172837  7 H  s                282     -2.140848  6 H  s          
    75      1.732321  2 O  py               241      1.527103  5 O  pz         
   131     -1.498133  3 O  pz                35     -1.419435  1 S  dxy        

 Vector   43  Occ=0.000000D+00  E= 1.526019D-01
              MO Center=  3.1D-02,  3.5D-01,  3.3D-01, r^2= 1.4D+01
   Bfn.  Coefficient  Atom+Function         Bfn.  Coefficient  Atom+Function  
  ----- ------------  ---------------      ----- ------------  ---------------
    64      3.985249  2 O  s                307     -3.735781  7 H  s          
   282      3.274127  6 H  s                174     -2.495429  4 O  s          
   185      1.934899  4 O  py                76     -1.893981  2 O  pz         
     6     -1.559476  1 S  s                184     -1.428739  4 O  px         
    74      1.392466  2 O  px                21      1.109234  1 S  pz         

 Vector   44  Occ=0.000000D+00  E= 1.558447D-01
              MO Center=  1.3D-01,  1.1D-01, -2.8D-01, r^2= 1.4D+01
   Bfn.  Coefficient  Atom+Function         Bfn.  Coefficient  Atom+Function  
  ----- ------------  ---------------      ----- ------------  ---------------
     6     11.472587  1 S  s                174     -4.795777  4 O  s          
   119     -3.885916  3 O  s                 64     -3.364583  2 O  s          
   282      2.354402  6 H  s                 20      1.674992  1 S  py         
    35     -1.639661  1 S  dxy               19      1.559323  1 S  px         
   308     -1.557697  7 H  s                 75      1.547959  2 O  py         

 Vector   45  Occ=0.000000D+00  E= 1.594195D-01
              MO Center= -2.2D-01,  9.3D-01,  7.2D-01, r^2= 1.3D+01
   Bfn.  Coefficient  Atom+Function         Bfn.  Coefficient  Atom+Function  
  ----- ------------  ---------------      ----- ------------  ---------------
   282      5.725133  6 H  s                307     -5.549030  7 H  s          
    74      2.923069  2 O  px               184     -2.825724  4 O  px         
    18     -2.743756  1 S  pz                 6     -2.511267  1 S  s          
    21     -2.485814  1 S  pz                64      2.434227  2 O  s          
   283      2.029182  6 H  s                308     -1.596157  7 H  s          

 Vector   46  Occ=0.000000D+00  E= 1.634672D-01
              MO Center=  9.8D-04,  9.2D-02,  8.4D-02, r^2= 1.4D+01
   Bfn.  Coefficient  Atom+Function         Bfn.  Coefficient  Atom+Function  
  ----- ------------  ---------------      ----- ------------  ---------------
     6     10.949885  1 S  s                119     -6.959039  3 O  s          
   282     -5.263039  6 H  s                307     -5.228340  7 H  s          
    64      2.995761  2 O  s                174      2.964761  4 O  s          
    20      2.712216  1 S  py               229     -2.663348  5 O  s          
    16      2.628706  1 S  px                74      2.287666  2 O  px         

 Vector   47  Occ=0.000000D+00  E= 1.747598D-01
              MO Center= -2.0D-01, -2.7D-02,  1.1D-02, r^2= 1.3D+01
   Bfn.  Coefficient  Atom+Function         Bfn.  Coefficient  Atom+Function  
  ----- ------------  ---------------      ----- ------------  ---------------
     6      7.206067  1 S  s                229     -6.539578  5 O  s          
    16     -4.174015  1 S  px                64     -2.886842  2 O  s          
   174     -2.531907  4 O  s                239     -2.356581  5 O  px         
   240     -2.228814  5 O  py                20      2.079096  1 S  py         
   119      1.886473  3 O  s                129     -1.479744  3 O  px         

 Vector   48  Occ=0.000000D+00  E= 1.933006D-01
              MO Center= -1.1D-01, -2.3D-01, -1.1D-01, r^2= 1.6D+01
   Bfn.  Coefficient  Atom+Function         Bfn.  Coefficient  Atom+Function  
  ----- ------------  ---------------      ----- ------------  ---------------
    20     -3.620787  1 S  py                19      3.593138  1 S  px         
   174      3.112581  4 O  s                 64      2.973933  2 O  s          
    21     -2.404766  1 S  pz               239     -2.107974  5 O  px         
   130      1.936584  3 O  py                17     -1.687648  1 S  py         
   129     -1.513972  3 O  px                 6     -1.328260  1 S  s          

 Vector   49  Occ=0.000000D+00  E= 1.947764D-01
              MO Center= -8.0D-01, -5.7D-01, -2.5D-01, r^2= 1.5D+01
   Bfn.  Coefficient  Atom+Function         Bfn.  Coefficient  Atom+Function  
  ----- ------------  ---------------      ----- ------------  ---------------
   174     -6.760556  4 O  s                 64     -6.553050  2 O  s          
    19      6.506249  1 S  px                 6      5.562443  1 S  s          
     5      3.533338  1 S  s                 17      3.333653  1 S  py         
    74     -3.334834  2 O  px               129     -3.222461  3 O  px         
   239     -3.169974  5 O  px               184     -3.083744  4 O  px         

 Vector   50  Occ=0.000000D+00  E= 2.020465D-01
              MO Center= -4.3D-01, -9.5D-01, -4.5D-01, r^2= 1.5D+01
   Bfn.  Coefficient  Atom+Function         Bfn.  Coefficient  Atom+Function  
  ----- ------------  ---------------      ----- ------------  ---------------
    21      5.962003  1 S  pz                64      4.800525  2 O  s          
   174     -4.815687  4 O  s                282      4.288096  6 H  s          
   307     -4.159997  7 H  s                 20     -3.248791  1 S  py         
   241     -3.016753  5 O  pz                18      2.247401  1 S  pz         
   131     -2.133244  3 O  pz               240      1.592285  5 O  py         

 Vector   51  Occ=0.000000D+00  E= 2.245859D-01
              MO Center=  1.9D-01, -2.8D-01, -1.2D-01, r^2= 1.3D+01
   Bfn.  Coefficient  Atom+Function         Bfn.  Coefficient  Atom+Function  
  ----- ------------  ---------------      ----- ------------  ---------------
     6     12.497304  1 S  s                 64     -7.326299  2 O  s          
   174     -7.235468  4 O  s                 16     -7.069872  1 S  px         
   119      5.416863  3 O  s                229     -3.244319  5 O  s          
    75      3.070125  2 O  py               186      2.852467  4 O  pz         
     5     -2.756206  1 S  s                 34     -2.671707  1 S  dxx        

 Vector   52  Occ=0.000000D+00  E= 2.357323D-01
              MO Center=  3.3D-02,  2.7D-01,  1.6D-01, r^2= 1.3D+01
   Bfn.  Coefficient  Atom+Function         Bfn.  Coefficient  Atom+Function  
  ----- ------------  ---------------      ----- ------------  ---------------
     6      7.755262  1 S  s                 16      6.476991  1 S  px         
   229      4.924525  5 O  s                119     -3.748772  3 O  s          
     5     -3.706914  1 S  s                282     -3.625988  6 H  s          
   307     -3.224733  7 H  s                239      2.880363  5 O  px         
    17      2.485962  1 S  py               129      2.059069  3 O  px         

 Vector   53  Occ=0.000000D+00  E= 2.538278D-01
              MO Center=  4.8D-01,  4.4D-01,  2.8D-01, r^2= 1.1D+01
   Bfn.  Coefficient  Atom+Function         Bfn.  Coefficient  Atom+Function  
  ----- ------------  ---------------      ----- ------------  ---------------
   174      9.390151  4 O  s                 64     -6.498443  2 O  s          
   282     -3.836335  6 H  s                307      2.875555  7 H  s          
    18     -2.843137  1 S  pz                76     -2.475748  2 O  pz         
     6     -2.460177  1 S  s                131     -2.431580  3 O  pz         
   185      2.179370  4 O  py                21      1.876159  1 S  pz         

 Vector   54  Occ=0.000000D+00  E= 2.553022D-01
              MO Center= -3.6D-01,  1.2D-01,  1.2D-01, r^2= 1.1D+01
   Bfn.  Coefficient  Atom+Function         Bfn.  Coefficient  Atom+Function  
  ----- ------------  ---------------      ----- ------------  ---------------
    64      9.719985  2 O  s                174     -8.303570  4 O  s          
   307     -3.413699  7 H  s                282      3.030454  6 H  s          
    18      2.943490  1 S  pz                75     -2.444606  2 O  py         
   186      1.981213  4 O  pz                38      1.879768  1 S  dyz        
    17     -1.856509  1 S  py               241      1.573015  5 O  pz         

 Vector   55  Occ=0.000000D+00  E= 2.619519D-01
              MO Center= -1.8D-01,  4.8D-01,  1.9D-01, r^2= 1.1D+01
   Bfn.  Coefficient  Atom+Function         Bfn.  Coefficient  Atom+Function  
  ----- ------------  ---------------      ----- ------------  ---------------
     6     20.531543  1 S  s                229    -11.451566  5 O  s          
   174     -6.757562  4 O  s                 64     -6.503431  2 O  s          
   119     -6.282751  3 O  s                282      3.962746  6 H  s          
     5     -3.457487  1 S  s                307      3.469049  7 H  s          
    19      2.566705  1 S  px               239     -2.472941  5 O  px         

 Vector   56  Occ=0.000000D+00  E= 2.720906D-01
              MO Center=  8.6D-01,  6.2D-01,  4.6D-01, r^2= 1.1D+01
   Bfn.  Coefficient  Atom+Function         Bfn.  Coefficient  Atom+Function  
  ----- ------------  ---------------      ----- ------------  ---------------
   307     -7.897362  7 H  s                 64      7.739477  2 O  s          
   282      7.644725  6 H  s                174     -7.574166  4 O  s          
   290     -2.609105  6 H  px               315      2.405363  7 H  px         
    38     -1.924718  1 S  dyz                6     -1.617040  1 S  s          
    74      1.579609  2 O  px               283      1.457456  6 H  s          

 Vector   57  Occ=0.000000D+00  E= 2.757542D-01
              MO Center= -1.9D-01,  1.9D-02, -1.7D-01, r^2= 8.4D+00
   Bfn.  Coefficient  Atom+Function         Bfn.  Coefficient  Atom+Function  
  ----- ------------  ---------------      ----- ------------  ---------------
   229      7.687521  5 O  s                  6     -5.812440  1 S  s          
    64     -5.665718  2 O  s                119      4.058188  3 O  s          
    38     -2.970082  1 S  dyz              307      2.820899  7 H  s          
    17      2.456501  1 S  py                75      2.365874  2 O  py         
    39      2.199309  1 S  dzz              240      1.997464  5 O  py         

 Vector   58  Occ=0.000000D+00  E= 2.854106D-01
              MO Center=  1.1D-01,  9.3D-01,  6.0D-01, r^2= 1.1D+01
   Bfn.  Coefficient  Atom+Function         Bfn.  Coefficient  Atom+Function  
  ----- ------------  ---------------      ----- ------------  ---------------
   174      8.536962  4 O  s                 64     -5.801450  2 O  s          
   186     -4.771472  4 O  pz                76     -3.353225  2 O  pz         
    75      2.843539  2 O  py                18     -2.555512  1 S  pz         
   292      2.473161  6 H  pz               282     -2.398352  6 H  s          
   317      1.793945  7 H  pz               316     -1.605344  7 H  py         

 Vector   59  Occ=0.000000D+00  E= 3.040947D-01
              MO Center=  9.3D-01,  6.9D-02,  6.8D-02, r^2= 1.2D+01
   Bfn.  Coefficient  Atom+Function         Bfn.  Coefficient  Atom+Function  
  ----- ------------  ---------------      ----- ------------  ---------------
     6     22.304881  1 S  s                 64    -16.060699  2 O  s          
   174    -14.707350  4 O  s                119    -14.132257  3 O  s          
   307      8.753935  7 H  s                282      8.315862  6 H  s          
   229     -7.671262  5 O  s                  5      4.787045  1 S  s          
   290     -3.281749  6 H  px                37      3.158470  1 S  dyy        

 Vector   60  Occ=0.000000D+00  E= 3.095362D-01
              MO Center=  3.6D-01,  4.5D-01,  1.7D-01, r^2= 1.1D+01
   Bfn.  Coefficient  Atom+Function         Bfn.  Coefficient  Atom+Function  
  ----- ------------  ---------------      ----- ------------  ---------------
   174      4.277275  4 O  s                 63      4.009367  2 O  s          
   173     -3.342371  4 O  s                 18     -3.242679  1 S  pz         
     6     -3.119402  1 S  s                184      2.468881  4 O  px         
   119      2.356006  3 O  s                 17      2.258292  1 S  py         
   315      2.122592  7 H  px                74     -2.086595  2 O  px         

 Vector   61  Occ=0.000000D+00  E= 3.205440D-01
              MO Center= -2.2D-01, -2.3D-01, -1.2D-01, r^2= 1.3D+01
   Bfn.  Coefficient  Atom+Function         Bfn.  Coefficient  Atom+Function  
  ----- ------------  ---------------      ----- ------------  ---------------
   229     12.175627  5 O  s                119     -4.960475  3 O  s          
    16      4.803715  1 S  px               239      3.783570  5 O  px         
    37     -3.339789  1 S  dyy               39     -3.222772  1 S  dzz        
    17      3.096486  1 S  py                 6      2.918629  1 S  s          
    34     -2.587473  1 S  dxx              184      2.546366  4 O  px         

 Vector   62  Occ=0.000000D+00  E= 3.386941D-01
              MO Center=  8.1D-01,  2.0D-01, -1.1D-02, r^2= 1.2D+01
   Bfn.  Coefficient  Atom+Function         Bfn.  Coefficient  Atom+Function  
  ----- ------------  ---------------      ----- ------------  ---------------
   119     12.314328  3 O  s                  5     -9.559701  1 S  s          
   229      8.093940  5 O  s                 39     -7.199559  1 S  dzz        
    37     -7.018148  1 S  dyy               34     -6.932703  1 S  dxx        
   282      5.319861  6 H  s                307      5.194277  7 H  s          
     6     -3.816253  1 S  s                 16     -3.508105  1 S  px         

 Vector   63  Occ=0.000000D+00  E= 3.536913D-01
              MO Center= -5.2D-01,  4.9D-01,  3.7D-01, r^2= 9.4D+00
   Bfn.  Coefficient  Atom+Function         Bfn.  Coefficient  Atom+Function  
  ----- ------------  ---------------      ----- ------------  ---------------
     6     19.412876  1 S  s                119    -13.003955  3 O  s          
   229     -8.794157  5 O  s                 34      7.518655  1 S  dxx        
   174     -5.542437  4 O  s                 64     -5.433298  2 O  s          
    35     -4.089576  1 S  dxy               36     -3.497496  1 S  dxz        
   118     -2.529898  3 O  s                129      2.494465  3 O  px         

 Vector   64  Occ=0.000000D+00  E= 3.682870D-01
              MO Center= -6.6D-02,  3.6D-01,  2.7D-01, r^2= 6.9D+00
   Bfn.  Coefficient  Atom+Function         Bfn.  Coefficient  Atom+Function  
  ----- ------------  ---------------      ----- ------------  ---------------
   282      3.644387  6 H  s                 36      3.315225  1 S  dxz        
    75      2.561728  2 O  py               307     -2.503574  7 H  s          
   184     -2.301127  4 O  px                35     -2.199849  1 S  dxy        
   316     -2.074025  7 H  py               186     -1.982242  4 O  pz         
    74      1.929858  2 O  px               292      1.464667  6 H  pz         

 Vector   65  Occ=0.000000D+00  E= 3.886886D-01
              MO Center= -2.3D-01,  2.6D-01,  2.0D-01, r^2= 9.3D+00
   Bfn.  Coefficient  Atom+Function         Bfn.  Coefficient  Atom+Function  
  ----- ------------  ---------------      ----- ------------  ---------------
   229     12.036761  5 O  s                282      8.870966  6 H  s          
   307      8.098224  7 H  s                 35     -7.934739  1 S  dxy        
    34     -5.984376  1 S  dxx               16      4.972058  1 S  px         
    17      4.828998  1 S  py               174     -4.638485  4 O  s          
     6     -4.407331  1 S  s                 64     -4.044179  2 O  s          

 Vector   66  Occ=0.000000D+00  E= 4.042742D-01
              MO Center=  4.4D-01,  6.0D-01,  3.2D-01, r^2= 8.2D+00
   Bfn.  Coefficient  Atom+Function         Bfn.  Coefficient  Atom+Function  
  ----- ------------  ---------------      ----- ------------  ---------------
     6     13.033527  1 S  s                 64    -10.919819  2 O  s          
    17     10.764584  1 S  py               174     -9.793234  4 O  s          
   229     -8.209253  5 O  s                  5      6.245923  1 S  s          
    18      5.805603  1 S  pz                35      4.816553  1 S  dxy        
    51     -3.503180  1 S  fxxy              34      3.371815  1 S  dxx        

 Vector   67  Occ=0.000000D+00  E= 4.152580D-01
              MO Center= -5.0D-02, -4.0D-01,  3.2D-01, r^2= 8.1D+00
   Bfn.  Coefficient  Atom+Function         Bfn.  Coefficient  Atom+Function  
  ----- ------------  ---------------      ----- ------------  ---------------
    18      9.889840  1 S  pz               174     -9.170430  4 O  s          
   282      5.753326  6 H  s                 36      5.134352  1 S  dxz        
    64     -4.359991  2 O  s                 39      4.067688  1 S  dzz        
    35     -3.851802  1 S  dxy               17      3.731976  1 S  py         
   119      2.577965  3 O  s                184     -2.581741  4 O  px         

 Vector   68  Occ=0.000000D+00  E= 4.171408D-01
              MO Center= -9.5D-02,  9.3D-02, -4.3D-01, r^2= 8.1D+00
   Bfn.  Coefficient  Atom+Function         Bfn.  Coefficient  Atom+Function  
  ----- ------------  ---------------      ----- ------------  ---------------
    17      9.665572  1 S  py                64     -8.472691  2 O  s          
   307      6.132058  7 H  s                 38     -5.747000  1 S  dyz        
    36     -5.405025  1 S  dxz              174     -5.033814  4 O  s          
   119      3.437214  3 O  s                229      2.907080  5 O  s          
    74     -2.565904  2 O  px               282      2.554957  6 H  s          

 Vector   69  Occ=0.000000D+00  E= 4.203885D-01
              MO Center=  1.3D-01,  5.7D-01,  8.5D-02, r^2= 9.9D+00
   Bfn.  Coefficient  Atom+Function         Bfn.  Coefficient  Atom+Function  
  ----- ------------  ---------------      ----- ------------  ---------------
   307     12.805420  7 H  s                282      9.118261  6 H  s          
     6     -8.672916  1 S  s                 17     -8.669884  1 S  py         
    34      4.042537  1 S  dxx              306     -3.831754  7 H  s          
    18     -3.442548  1 S  pz                37     -3.424315  1 S  dyy        
   281     -3.025096  6 H  s                118     -2.327627  3 O  s          

 Vector   70  Occ=0.000000D+00  E= 4.240844D-01
              MO Center=  2.0D-01,  6.1D-01,  4.2D-01, r^2= 1.0D+01
   Bfn.  Coefficient  Atom+Function         Bfn.  Coefficient  Atom+Function  
  ----- ------------  ---------------      ----- ------------  ---------------
    18     17.600867  1 S  pz               282    -11.433043  6 H  s          
    17     -9.451744  1 S  py               307      8.723110  7 H  s          
    38      5.570563  1 S  dyz               39      4.110972  1 S  dzz        
    37     -4.042567  1 S  dyy               64      3.839685  2 O  s          
    52     -3.530214  1 S  fxxz              59     -3.441637  1 S  fzzz       

 Vector   71  Occ=0.000000D+00  E= 4.538023D-01
              MO Center=  6.8D-03,  4.2D-01, -4.0D-01, r^2= 9.1D+00
   Bfn.  Coefficient  Atom+Function         Bfn.  Coefficient  Atom+Function  
  ----- ------------  ---------------      ----- ------------  ---------------
    16     21.192881  1 S  px               307    -17.782526  7 H  s          
    64     13.166451  2 O  s                119     -7.973684  3 O  s          
   282     -5.683192  6 H  s                 50     -5.402832  1 S  fxxx       
    55     -5.126108  1 S  fxzz              53     -4.870823  1 S  fxyy       
     5     -4.388362  1 S  s                316      4.110323  7 H  py         

 Vector   72  Occ=0.000000D+00  E= 4.569443D-01
              MO Center= -1.3D-01, -2.6D-01,  6.1D-01, r^2= 9.8D+00
   Bfn.  Coefficient  Atom+Function         Bfn.  Coefficient  Atom+Function  
  ----- ------------  ---------------      ----- ------------  ---------------
   282     21.856400  6 H  s                174    -18.506073  4 O  s          
   307    -13.116806  7 H  s                 64     12.441180  2 O  s          
    36     -8.244621  1 S  dxz               16     -6.603015  1 S  px         
    35      5.129681  1 S  dxy               18      4.530653  1 S  pz         
   290     -3.574628  6 H  px               281     -3.462663  6 H  s          

 Vector   73  Occ=0.000000D+00  E= 5.384445D-01
              MO Center=  2.1D-01, -9.3D-02,  5.9D-02, r^2= 6.4D+00
   Bfn.  Coefficient  Atom+Function         Bfn.  Coefficient  Atom+Function  
  ----- ------------  ---------------      ----- ------------  ---------------
   174      5.667383  4 O  s                282     -5.102225  6 H  s          
    18     -4.757342  1 S  pz               307      3.960783  7 H  s          
    59      3.689497  1 S  fzzz              57      3.626727  1 S  fyyz       
    52      3.383044  1 S  fxxz              64     -3.131905  2 O  s          
    63      3.104669  2 O  s                173     -2.690179  4 O  s          

 Vector   74  Occ=0.000000D+00  E= 5.453950D-01
              MO Center=  4.0D-01,  3.9D-01,  1.3D-02, r^2= 6.3D+00
   Bfn.  Coefficient  Atom+Function         Bfn.  Coefficient  Atom+Function  
  ----- ------------  ---------------      ----- ------------  ---------------
    64      4.546596  2 O  s                 16      3.646203  1 S  px         
   228      3.511156  5 O  s                 35     -3.452498  1 S  dxy        
     6     -2.662056  1 S  s                307     -2.580926  7 H  s          
    51      2.471575  1 S  fxxy             174      2.321109  4 O  s          
   118     -2.287376  3 O  s                 17     -2.157870  1 S  py         

 Vector   75  Occ=0.000000D+00  E= 5.793412D-01
              MO Center= -8.9D-02, -9.3D-01, -4.8D-01, r^2= 7.0D+00
   Bfn.  Coefficient  Atom+Function         Bfn.  Coefficient  Atom+Function  
  ----- ------------  ---------------      ----- ------------  ---------------
    35      5.224345  1 S  dxy              118      3.684403  3 O  s          
   229     -3.646064  5 O  s                 36      3.263747  1 S  dxz        
    63      2.473256  2 O  s                239     -2.411932  5 O  px         
     5     -2.254748  1 S  s                 19      2.218862  1 S  px         
   306     -2.142597  7 H  s                 53     -2.067392  1 S  fxyy       

 Vector   76  Occ=0.000000D+00  E= 5.842563D-01
              MO Center= -4.7D-01, -9.7D-02, -8.7D-02, r^2= 7.5D+00
   Bfn.  Coefficient  Atom+Function         Bfn.  Coefficient  Atom+Function  
  ----- ------------  ---------------      ----- ------------  ---------------
   173     -3.568847  4 O  s                 63      3.244655  2 O  s          
   281      3.146804  6 H  s                306     -2.576714  7 H  s          
   307      2.281446  7 H  s                 18      1.953606  1 S  pz         
    38      1.923189  1 S  dyz              282     -1.889840  6 H  s          
    39      1.590310  1 S  dzz               53      1.590063  1 S  fxyy       

 Vector   77  Occ=0.000000D+00  E= 5.943428D-01
              MO Center=  5.0D-01,  6.6D-01,  5.2D-01, r^2= 7.1D+00
   Bfn.  Coefficient  Atom+Function         Bfn.  Coefficient  Atom+Function  
  ----- ------------  ---------------      ----- ------------  ---------------
   307     -2.967559  7 H  s                 64      2.935993  2 O  s          
   174     -2.830157  4 O  s                282      2.730649  6 H  s          
    73     -1.669567  2 O  pz               182      1.587830  4 O  py         
   292      1.551625  6 H  pz               317      1.520699  7 H  pz         
   201     -1.491103  4 O  dxz                5      1.264746  1 S  s          

 Vector   78  Occ=0.000000D+00  E= 5.996306D-01
              MO Center=  7.0D-03,  1.1D-02, -1.3D-02, r^2= 8.1D+00
   Bfn.  Coefficient  Atom+Function         Bfn.  Coefficient  Atom+Function  
  ----- ------------  ---------------      ----- ------------  ---------------
     5     15.453777  1 S  s                228     -6.361710  5 O  s          
   118     -5.661280  3 O  s                126      3.949007  3 O  px         
    39     -3.438535  1 S  dzz              174      3.241910  4 O  s          
   236     -3.014743  5 O  px                37     -2.942369  1 S  dyy        
    64      2.864241  2 O  s                 51     -2.819036  1 S  fxxy       

 Vector   79  Occ=0.000000D+00  E= 6.190132D-01
              MO Center=  6.4D-02,  2.1D-02,  3.3D-01, r^2= 7.8D+00
   Bfn.  Coefficient  Atom+Function         Bfn.  Coefficient  Atom+Function  
  ----- ------------  ---------------      ----- ------------  ---------------
     5      7.529093  1 S  s                  6      5.720170  1 S  s          
    39     -4.548912  1 S  dzz              307     -3.757313  7 H  s          
   229      3.518042  5 O  s                118     -3.394781  3 O  s          
    17      3.227146  1 S  py               119      2.932527  3 O  s          
    34     -2.785737  1 S  dxx              126      2.507560  3 O  px         

 Vector   80  Occ=0.000000D+00  E= 6.253176D-01
              MO Center=  1.9D-02,  1.9D-01, -1.8D-02, r^2= 8.0D+00
   Bfn.  Coefficient  Atom+Function         Bfn.  Coefficient  Atom+Function  
  ----- ------------  ---------------      ----- ------------  ---------------
     5     13.125863  1 S  s                229      5.314376  5 O  s          
     6      4.872240  1 S  s                118     -4.845778  3 O  s          
    37     -4.648768  1 S  dyy               34     -4.364029  1 S  dxx        
   228     -4.305501  5 O  s                119      4.059107  3 O  s          
    39     -3.939258  1 S  dzz              126      3.548548  3 O  px         

 Vector   81  Occ=0.000000D+00  E= 6.329095D-01
              MO Center= -3.3D-01,  7.3D-01,  3.8D-01, r^2= 9.0D+00
   Bfn.  Coefficient  Atom+Function         Bfn.  Coefficient  Atom+Function  
  ----- ------------  ---------------      ----- ------------  ---------------
     5     20.356357  1 S  s                 64      7.890726  2 O  s          
     6     -6.906982  1 S  s                174      6.883663  4 O  s          
    16      6.376030  1 S  px               228     -6.077190  5 O  s          
   118     -5.238586  3 O  s                 63     -4.757198  2 O  s          
   183      4.291283  4 O  pz               173     -4.076181  4 O  s          

 Vector   82  Occ=0.000000D+00  E= 6.522339D-01
              MO Center=  1.6D-01, -3.5D-01, -1.7D-02, r^2= 7.3D+00
   Bfn.  Coefficient  Atom+Function         Bfn.  Coefficient  Atom+Function  
  ----- ------------  ---------------      ----- ------------  ---------------
   282      8.054170  6 H  s                 16     -3.742963  1 S  px         
   174     -3.672634  4 O  s                  6      3.148249  1 S  s          
   281     -3.031147  6 H  s                173      2.899962  4 O  s          
    34     -2.429032  1 S  dxx               39     -2.290617  1 S  dzz        
    35      1.948478  1 S  dxy              183     -1.944612  4 O  pz         

 Vector   83  Occ=0.000000D+00  E= 6.656802D-01
              MO Center= -3.0D-01,  2.7D-01,  5.7D-02, r^2= 7.6D+00
   Bfn.  Coefficient  Atom+Function         Bfn.  Coefficient  Atom+Function  
  ----- ------------  ---------------      ----- ------------  ---------------
   307     11.981025  7 H  s                282    -10.056140  6 H  s          
   174      9.146456  4 O  s                 64     -8.625388  2 O  s          
   306     -4.576599  7 H  s                281      4.254018  6 H  s          
    36      3.134019  1 S  dxz               21     -2.069554  1 S  pz         
    18      2.053734  1 S  pz               292      1.847140  6 H  pz         

 Vector   84  Occ=0.000000D+00  E= 6.728646D-01
              MO Center=  2.2D-01, -2.2D-01,  9.6D-02, r^2= 8.4D+00
   Bfn.  Coefficient  Atom+Function         Bfn.  Coefficient  Atom+Function  
  ----- ------------  ---------------      ----- ------------  ---------------
   282     12.368530  6 H  s                307     -9.023736  7 H  s          
    18     -7.309750  1 S  pz               174     -6.929394  4 O  s          
    63     -4.818419  2 O  s                281     -4.636182  6 H  s          
   306      4.648455  7 H  s                 64      4.045725  2 O  s          
    17      3.660615  1 S  py                38     -3.393686  1 S  dyz        

 Vector   85  Occ=0.000000D+00  E= 6.782236D-01
              MO Center=  2.4D-01, -9.5D-02, -1.5D-01, r^2= 7.7D+00
   Bfn.  Coefficient  Atom+Function         Bfn.  Coefficient  Atom+Function  
  ----- ------------  ---------------      ----- ------------  ---------------
     5      9.463676  1 S  s                 16     -9.361651  1 S  px         
   307      8.233731  7 H  s                119      7.825140  3 O  s          
   282      5.476226  6 H  s                 34     -4.981863  1 S  dxx        
   173     -4.571864  4 O  s                 55      4.490608  1 S  fxzz       
    64     -4.379561  2 O  s                 37     -4.112133  1 S  dyy        

 Vector   86  Occ=0.000000D+00  E= 6.873272D-01
              MO Center= -2.5D-01,  2.4D-01, -3.6D-02, r^2= 8.6D+00
   Bfn.  Coefficient  Atom+Function         Bfn.  Coefficient  Atom+Function  
  ----- ------------  ---------------      ----- ------------  ---------------
    64     10.885544  2 O  s                282     -5.081673  6 H  s          
    18      4.504805  1 S  pz               307     -4.493180  7 H  s          
    52     -3.740571  1 S  fxxz             118     -3.660428  3 O  s          
    17     -3.096603  1 S  py                59     -2.363903  1 S  fzzz       
     5      2.333059  1 S  s                229     -2.322703  5 O  s          

 Vector   87  Occ=0.000000D+00  E= 6.898577D-01
              MO Center= -9.9D-02,  3.4D-01,  3.1D-01, r^2= 8.2D+00
   Bfn.  Coefficient  Atom+Function         Bfn.  Coefficient  Atom+Function  
  ----- ------------  ---------------      ----- ------------  ---------------
   174      9.763569  4 O  s                307     -8.440702  7 H  s          
    18     -6.442689  1 S  pz                17      3.542510  1 S  py         
   173      3.339000  4 O  s                282     -3.202543  6 H  s          
    51     -2.929366  1 S  fxxy             306      2.669550  7 H  s          
   118     -2.578531  3 O  s                229     -2.540671  5 O  s          

 Vector   88  Occ=0.000000D+00  E= 7.149516D-01
              MO Center=  1.4D-01,  3.4D-01,  1.5D-01, r^2= 6.5D+00
   Bfn.  Coefficient  Atom+Function         Bfn.  Coefficient  Atom+Function  
  ----- ------------  ---------------      ----- ------------  ---------------
    52      5.603227  1 S  fxxz             174     -4.946694  4 O  s          
    64      4.077141  2 O  s                 51     -2.740362  1 S  fxxy       
   173     -1.935015  4 O  s                238     -1.814585  5 O  pz         
    54      1.585474  1 S  fxyz             183      1.464792  4 O  pz         
   281      1.418881  6 H  s                256     -1.394812  5 O  dxz        

 Vector   89  Occ=0.000000D+00  E= 7.241133D-01
              MO Center= -6.4D-01,  4.2D-03,  7.0D-02, r^2= 7.3D+00
   Bfn.  Coefficient  Atom+Function         Bfn.  Coefficient  Atom+Function  
  ----- ------------  ---------------      ----- ------------  ---------------
     5     17.307153  1 S  s                  6    -15.831591  1 S  s          
   229     11.892423  5 O  s                118     -7.856741  3 O  s          
   173     -5.522683  4 O  s                 63     -5.377171  2 O  s          
   183      4.686033  4 O  pz                35     -4.600985  1 S  dxy        
    72      4.400480  2 O  py               282      4.259998  6 H  s          

 Vector   90  Occ=0.000000D+00  E= 7.265510D-01
[...]
    11      6.229212  1 S  py               236     -5.111055  5 O  px         
   226     -5.037917  5 O  s                 17     -3.973101  1 S  py         
   170      3.976899  4 O  s                 53     -3.900521  1 S  fxyy       

 Vector  325  Occ=0.000000D+00  E= 1.707517D+01
              MO Center= -9.4D-02,  1.5D-01,  1.2D-01, r^2= 2.9D+00
   Bfn.  Coefficient  Atom+Function         Bfn.  Coefficient  Atom+Function  
  ----- ------------  ---------------      ----- ------------  ---------------
    63     10.364801  2 O  s                173     10.415670  4 O  s          
   228      9.696855  5 O  s                  6     -9.064868  1 S  s          
     5      7.901478  1 S  s                119      5.693314  3 O  s          
    11     -4.604239  1 S  py               126      4.451491  3 O  px         
   118      4.420423  3 O  s                229      4.412037  5 O  s          

 Vector  326  Occ=0.000000D+00  E= 1.731863D+01
              MO Center= -6.7D-02,  6.8D-01,  4.1D-01, r^2= 2.9D+00
   Bfn.  Coefficient  Atom+Function         Bfn.  Coefficient  Atom+Function  
  ----- ------------  ---------------      ----- ------------  ---------------
   183    -11.301292  4 O  pz                72     10.633588  2 O  py         
    52     -8.058249  1 S  fxxz             204      7.416565  4 O  dzz        
    92     -7.273308  2 O  dyy               18     -7.150877  1 S  pz         
    63      7.097860  2 O  s                173     -7.115176  4 O  s          
   180     -7.079492  4 O  pz                69      6.280790  2 O  py         

 Vector  327  Occ=0.000000D+00  E= 1.741594D+01
              MO Center= -7.0D-01, -5.6D-01, -2.3D-01, r^2= 2.4D+00
   Bfn.  Coefficient  Atom+Function         Bfn.  Coefficient  Atom+Function  
  ----- ------------  ---------------      ----- ------------  ---------------
   236    -16.670641  5 O  px                 5     16.163427  1 S  s          
    16    -11.456625  1 S  px               237    -10.309140  5 O  py         
   233     -9.991178  5 O  px               254     -9.246518  5 O  dxx        
   257     -7.766978  5 O  dyy              126     -7.582083  3 O  px         
   259     -7.185005  5 O  dzz               55     -6.228938  1 S  fxzz       

 Vector  328  Occ=0.000000D+00  E= 1.777332D+01
              MO Center=  6.4D-01, -8.2D-02, -9.1D-02, r^2= 3.0D+00
   Bfn.  Coefficient  Atom+Function         Bfn.  Coefficient  Atom+Function  
  ----- ------------  ---------------      ----- ------------  ---------------
     5     35.387268  1 S  s                126     16.168589  3 O  px         
    16     13.783351  1 S  px                63    -12.632157  2 O  s          
   173    -12.593098  4 O  s                 17    -10.296025  1 S  py         
   144    -10.155206  3 O  dxx              123      8.216659  3 O  px         
   147     -8.195401  3 O  dyy              149     -8.102155  3 O  dzz        

 Vector  329  Occ=0.000000D+00  E= 3.332648D+01
              MO Center= -6.8D-02, -5.5D-02, -4.8D-03, r^2= 3.2D+00
   Bfn.  Coefficient  Atom+Function         Bfn.  Coefficient  Atom+Function  
  ----- ------------  ---------------      ----- ------------  ---------------
     5    172.197571  1 S  s                  3    -63.558175  1 S  s          
     2    -44.205591  1 S  s                118    -41.939659  3 O  s          
    63    -41.262618  2 O  s                173    -41.260675  4 O  s          
   183     37.252220  4 O  pz               228    -37.380434  5 O  s          
    72     34.124171  2 O  py               126     24.255536  3 O  px         


 center of mass
 --------------
 x =  -0.15579733 y =  -0.00938008 z =   0.04620978

 moments of inertia (a.u.)
 ------------------
         376.359694638928          -2.095469893669          -1.696576035119
          -2.095469893669         388.654268900916          10.897443621415
          -1.696576035119          10.897443621415         375.525406104983

     Multipole analysis of the density
     ---------------------------------

     L   x y z        total         alpha         beta         nuclear
     -   - - -        -----         -----         ----         -------
     0   0 0 0     -0.000000    -25.000000    -25.000000     50.000000

     1   1 0 0      0.999382      3.620583      3.620583     -6.241784
     1   0 1 0      0.921409     -0.182592     -0.182592      1.286594
     1   0 0 1      0.413713     -1.359470     -1.359470      3.132654

     2   2 0 0    -27.921169    -64.056362    -64.056362    100.191555
     2   1 1 0      1.980300     -0.626678     -0.626678      3.233655
     2   1 0 1      1.558503     -0.390668     -0.390668      2.339839
     2   0 2 0    -25.710721    -60.830076    -60.830076     95.949431
     2   0 1 1     -1.472543      3.073621      3.073621     -7.619785
     2   0 0 2    -24.243739    -64.598804    -64.598804    104.953869

 Line search: 
     step= 1.00 grad=-4.2D-08 hess=-2.7D-08 energy=   -699.952414 mode=accept  
 new step= 1.00                   predicted energy=   -699.952414

          --------
          Step   8
          --------


                         Geometry "geometry" -> "geometry"
                         ---------------------------------

 Output coordinates in angstroms (scale by  1.889725989 to convert to a.u.)

  No.       Tag          Charge          X              Y              Z
 ---- ---------------- ---------- -------------- -------------- --------------
    1 S                   16.0000    -0.08584319    -0.12660499    -0.04252231
    2 O                    8.0000    -0.27232416     1.37822164    -0.64401261
    3 O                    8.0000     1.23424213    -0.61065061    -0.43397568
    4 O                    8.0000    -0.06685487     0.15568921     1.56386760
    5 O                    8.0000    -1.32213396    -0.81814001    -0.30954271
    6 H                    1.0000     0.87151111     0.17642922     1.83745719
    7 H                    1.0000     0.61553668     1.68912478    -0.91006373

      Atomic Mass 
      ----------- 

      S                 31.972070
      O                 15.994910
      H                  1.007825


 Effective nuclear repulsion energy (a.u.)     283.3491700775

            Nuclear Dipole moment (a.u.) 
            ----------------------------
        X                 Y               Z
 ---------------- ---------------- ----------------
    -6.2417839608     1.2865936475     3.1326540492


                                 NWChem DFT Module
                                 -----------------




 Summary of "ao basis" -> "ao basis" (cartesian)
 ------------------------------------------------------------------------------
       Tag                 Description            Shells   Functions and Types
 ---------------- ------------------------------  ------  ---------------------
 S                        aug-cc-pVTZ               16       59   6s5p3d2f
 O                        aug-cc-pVTZ               14       55   5s4p3d2f
 H                        aug-cc-pVTZ                9       25   4s3p2d



  The DFT is already converged 

         Total DFT energy =   -699.952413925098


            General Information
            -------------------
          SCF calculation type: DFT
          Wavefunction type:  closed shell.
          No. of atoms     :     7
          No. of electrons :    50
           Alpha electrons :    25
            Beta electrons :    25
          Charge           :     0
          Spin multiplicity:     1
          Use of symmetry is: off; symmetry adaption is: off
          Maximum number of iterations: 200
          AO basis - number of functions:   329
                     number of shells:    90
          Convergence on energy requested:  1.00D-06
          Convergence on density requested:  1.00D-05
          Convergence on gradient requested:  5.00D-04

              XC Information
              --------------
          PerdewBurkeErnzerhof Exchange Functional  1.000          
            Perdew 1991 LDA Correlation Functional  1.000 local    
           PerdewBurkeErnz. Correlation Functional  1.000 non-local

             Grid Information
             ----------------
          Grid used for XC integration:  medium    
          Radial quadrature: Mura-Knowles        
          Angular quadrature: Lebedev. 
          Tag              B.-S. Rad. Rad. Pts. Rad. Cut. Ang. Pts.
          ---              ---------- --------- --------- ---------
          S                   1.00       88          13.0       590
          O                   0.60       49          13.0       434
          H                   0.35       45          14.0       434
          Grid pruning is: on 
          Number of quadrature shells:   374
          Spatial weights used:  Erf1

          Convergence Information
          -----------------------
          Convergence aids based upon iterative change in 
          total energy or number of iterations. 
          Levelshifting, if invoked, occurs when the 
          HOMO/LUMO gap drops below (HL_TOL):  1.00D-02
          DIIS, if invoked, will attempt to extrapolate 
          using up to (NFOCK): 10 stored Fock matrices.

                    Damping(40%)  Levelshifting(0.0)       DIIS
                  --------------- ------------------- ---------------
          dE  on:    start            ASAP                start   
          dE off:  200 iters        200 iters           200 iters 


      Screening Tolerance Information
      -------------------------------
          Density screening/tol_rho:  1.00D-10
          AO Gaussian exp screening on grid/accAOfunc:  14
          CD Gaussian exp screening on grid/accCDfunc:  20
          XC Gaussian exp screening on grid/accXCfunc:  20
          Schwarz screening/accCoul:  1.00D-08



                            NWChem DFT Gradient Module
                            --------------------------



  charge          =   0.00
  wavefunction    = closed shell



                         DFT ENERGY GRADIENTS

    atom               coordinates                        gradient
                 x          y          z           x          y          z
   1 S      -0.162220  -0.239249  -0.080356    0.000229   0.000020  -0.000012
   2 O      -0.514618   2.604461  -1.217007    0.000021  -0.000002  -0.000006
   3 O       2.332379  -1.153962  -0.820095   -0.000134   0.000053   0.000042
   4 O      -0.126337   0.294210   2.955281    0.000004   0.000001  -0.000006
   5 O      -2.498471  -1.546060  -0.584951   -0.000085  -0.000063  -0.000028
   6 H       1.646917   0.333403   3.472291   -0.000012  -0.000004  -0.000001
   7 H       1.163196   3.191983  -1.719771   -0.000024  -0.000006   0.000010

                 ----------------------------------------
                 |  Time  |  1-e(secs)   |  2-e(secs)   |
                 ----------------------------------------
                 |  CPU   |       0.01   |      14.88   |
                 ----------------------------------------
                 |  WALL  |       0.01   |      14.97   |
                 ----------------------------------------

  Step       Energy      Delta E   Gmax     Grms     Xrms     Xmax   Walltime
  ---- ---------------- -------- -------- -------- -------- -------- --------
@    8    -699.95241393 -6.9D-08  0.00023  0.00007  0.00070  0.00154    370.3
                                     ok       ok       ok       ok  


      ----------------------
      Optimization converged
      ----------------------


  Step       Energy      Delta E   Gmax     Grms     Xrms     Xmax   Walltime
  ---- ---------------- -------- -------- -------- -------- -------- --------
@    8    -699.95241393 -6.9D-08  0.00023  0.00007  0.00070  0.00154    370.3
                                     ok       ok       ok       ok  



                         Geometry "geometry" -> "geometry"
                         ---------------------------------

 Output coordinates in angstroms (scale by  1.889725989 to convert to a.u.)

  No.       Tag          Charge          X              Y              Z
 ---- ---------------- ---------- -------------- -------------- --------------
    1 S                   16.0000    -0.08584319    -0.12660499    -0.04252231
    2 O                    8.0000    -0.27232416     1.37822164    -0.64401261
    3 O                    8.0000     1.23424213    -0.61065061    -0.43397568
    4 O                    8.0000    -0.06685487     0.15568921     1.56386760
    5 O                    8.0000    -1.32213396    -0.81814001    -0.30954271
    6 H                    1.0000     0.87151111     0.17642922     1.83745719
    7 H                    1.0000     0.61553668     1.68912478    -0.91006373

      Atomic Mass 
      ----------- 

      S                 31.972070
      O                 15.994910
      H                  1.007825


 Effective nuclear repulsion energy (a.u.)     283.3491700775

            Nuclear Dipole moment (a.u.) 
            ----------------------------
        X                 Y               Z
 ---------------- ---------------- ----------------
    -6.2417839608     1.2865936475     3.1326540492

 ==============================================================================
                                internuclear distances
 ------------------------------------------------------------------------------
       center one      |      center two      | atomic units |  angstroms
 ------------------------------------------------------------------------------
    2 O                |   1 S                |     3.08267  |     1.63128
    3 O                |   1 S                |     2.75807  |     1.45951
    4 O                |   1 S                |     3.08236  |     1.63112
    5 O                |   1 S                |     2.72405  |     1.44150
    6 H                |   4 O                |     1.84750  |     0.97766
    7 H                |   2 O                |     1.84743  |     0.97762
 ------------------------------------------------------------------------------
                         number of included internuclear distances:          6
 ==============================================================================



 ==============================================================================
                                 internuclear angles
 ------------------------------------------------------------------------------
        center 1       |       center 2       |       center 3       |  degrees
 ------------------------------------------------------------------------------
    2 O                |   1 S                |   3 O                |   108.09
    2 O                |   1 S                |   4 O                |   101.82
    2 O                |   1 S                |   5 O                |   106.03
    3 O                |   1 S                |   4 O                |   108.12
    3 O                |   1 S                |   5 O                |   124.54
    4 O                |   1 S                |   5 O                |   105.99
    1 S                |   2 O                |   7 H                |   106.85
    1 S                |   4 O                |   6 H                |   106.88
 ------------------------------------------------------------------------------
                            number of included internuclear angles:          8
 ==============================================================================




 Task  times  cpu:      364.8s     wall:      370.1s


                                NWChem Input Module
                                -------------------


 Summary of allocated global arrays
-----------------------------------
  No active global arrays


MA_summarize_allocated_blocks: starting scan ...
MA_summarize_allocated_blocks: scan completed: 0 heap blocks, 0 stack blocks
MA usage statistics:

	allocation statistics:
					      heap	     stack
					      ----	     -----
	current number of blocks	         0	         0
	maximum number of blocks	        24	        53
	current total bytes		         0	         0
	maximum total bytes		 269196072	  76765176
	maximum total K-bytes		    269197	     76766
	maximum total M-bytes		       270	        77


                                     CITATION
                                     --------
                Please cite the following reference when publishing
                           results obtained with NWChem:

          E. Apra, E. J. Bylaska, W. A. de Jong, N. Govind, K. Kowalski,
       T. P. Straatsma, M. Valiev, H. J. J. van Dam, Y. Alexeev, J. Anchell,
       V. Anisimov, F. W. Aquino, R. Atta-Fynn, J. Autschbach, N. P. Bauman,
     J. C. Becca, D. E. Bernholdt, K. Bhaskaran-Nair, S. Bogatko, P. Borowski,
         J. Boschen, J. Brabec, A. Bruner, E. Cauet, Y. Chen, G. N. Chuev,
      C. J. Cramer, J. Daily, M. J. O. Deegan, T. H. Dunning Jr., M. Dupuis,
   K. G. Dyall, G. I. Fann, S. A. Fischer, A. Fonari, H. Fruchtl, L. Gagliardi,
      J. Garza, N. Gawande, S. Ghosh, K. Glaesemann, A. W. Gotz, J. Hammond,
       V. Helms, E. D. Hermes, K. Hirao, S. Hirata, M. Jacquelin, L. Jensen,
   B. G. Johnson, H. Jonsson, R. A. Kendall, M. Klemm, R. Kobayashi, V. Konkov,
      S. Krishnamoorthy, M. Krishnan, Z. Lin, R. D. Lins, R. J. Littlefield,
      A. J. Logsdail, K. Lopata, W. Ma, A. V. Marenich, J. Martin del Campo,
   D. Mejia-Rodriguez, J. E. Moore, J. M. Mullin, T. Nakajima, D. R. Nascimento,
    J. A. Nichols, P. J. Nichols, J. Nieplocha, A. Otero-de-la-Roza, B. Palmer,
    A. Panyala, T. Pirojsirikul, B. Peng, R. Peverati, J. Pittner, L. Pollack,
   R. M. Richard, P. Sadayappan, G. C. Schatz, W. A. Shelton, D. W. Silverstein,
   D. M. A. Smith, T. A. Soares, D. Song, M. Swart, H. L. Taylor, G. S. Thomas,
            V. Tipparaju, D. G. Truhlar, K. Tsemekhman, T. Van Voorhis,
      A. Vazquez-Mayagoitia, P. Verma, O. Villa, A. Vishnu, K. D. Vogiatzis,
        D. Wang, J. H. Weare, M. J. Williamson, T. L. Windus, K. Wolinski,
        A. T. Wong, Q. Wu, C. Yang, Q. Yu, M. Zacharias, Z. Zhang, Y. Zhao,
                                and R. J. Harrison
                        "NWChem: Past, present, and future
                         J. Chem. Phys. 152, 184102 (2020)
                               doi:10.1063/5.0004997

                                      AUTHORS
                                      -------
  E. Apra, E. J. Bylaska, N. Govind, K. Kowalski, M. Valiev, D. Mejia-Rodriguez,
       A. Kunitsa, N. P. Bauman, A. Panyala, W. A. de Jong, T. P. Straatsma,
   H. J. J. van Dam, D. Wang, T. L. Windus, J. Hammond, J. Autschbach, A. Woods,
    K. Bhaskaran-Nair, J. Brabec, K. Lopata, S. A. Fischer, S. Krishnamoorthy,
     M. Jacquelin, W. Ma, M. Klemm, O. Villa, Y. Chen, V. Anisimov, F. Aquino,
     S. Hirata, M. T. Hackler, E. Hermes, L. Jensen, J. E. Moore, J. C. Becca,
      V. Konjkov, T. Risthaus, M. Malagoli, A. Marenich, A. Otero-de-la-Roza,
        J. Mullin, P. Nichols, R. Peverati, J. Pittner, Y. Zhao, P.-D. Fan,
        A. Fonari, M. J. Williamson, R. J. Harrison, J. R. Rehr, M. Dupuis,
     D. Silverstein, D. M. A. Smith, J. Nieplocha, V. Tipparaju, M. Krishnan,
     B. E. Van Kuiken, A. Vazquez-Mayagoitia, M. Swart, Q. Wu, T. Van Voorhis,
     A. A. Auer, M. Nooijen, L. D. Crosby, E. Brown, G. Cisneros, G. I. Fann,
   H. Fruchtl, J. Garza, K. Hirao, R. A. Kendall, J. A. Nichols, K. Tsemekhman,
    K. Wolinski, J. Anchell, D. E. Bernholdt, P. Borowski, T. Clark, D. Clerc,
   H. Dachsel, M. J. O. Deegan, K. Dyall, D. Elwood, E. Glendening, M. Gutowski,
   A. C. Hess, J. Jaffe, B. G. Johnson, J. Ju, R. Kobayashi, R. Kutteh, Z. Lin,
   R. Littlefield, X. Long, B. Meng, T. Nakajima, S. Niu, L. Pollack, M. Rosing,
   K. Glaesemann, G. Sandrone, M. Stave, H. Taylor, G. Thomas, J. H. van Lenthe,
                               A. T. Wong, Z. Zhang.

 Total times  cpu:      364.8s     wall:      370.3s
