 argument  1 = proton/mol.nwi
                                         
                                         


             Northwest Computational Chemistry Package (NWChem) 7.2.2
             --------------------------------------------------------


                    Environmental Molecular Sciences Laboratory
                       Pacific Northwest National Laboratory
                                Richland, WA 99352

                              Copyright (c) 1994-2022
                       Pacific Northwest National Laboratory
                            Battelle Memorial Institute

             NWChem is an open-source computational chemistry package
                        distributed under the terms of the
                      Educational Community License (ECL) 2.0
             A copy of the license is included with this distribution
                              in the LICENSE.TXT file

                                  ACKNOWLEDGMENT
                                  --------------

            This software and its documentation were developed at the
            EMSL at Pacific Northwest National Laboratory, a multiprogram
            national laboratory, operated for the U.S. Department of Energy
            by Battelle under Contract Number DE-AC05-76RL01830. Support
            for this work was provided by the Department of Energy Office
            of Biological and Environmental Research, Office of Basic
            Energy Sciences, and the Office of Advanced Scientific Computing.


           Job information
           ---------------

    hostname        = r183.ib.bridges2.psc.edu
    program         = nwchem
    date            = Wed Oct  2 12:10:01 2024

    compiled        = Mon_Mar_18_17:03:37_2024
    source          = /ocean/projects/pscstaff/mmadrid/nwchem-7.2.2
    nwchem branch   = 7.2.2
    nwchem revision = 74936fb9
    ga revision     = 5.8.0
    use scalapack   = F
    input           = proton/mol.nwi
    prefix          = dft.
    data base       = .//dft.db
    status          = startup
    nproc           =       15
    time left       =     -1s



           Memory information
           ------------------

    heap     =   67108862 doubles =    512.0 Mbytes
    stack    =   67108859 doubles =    512.0 Mbytes
    global   =  134217728 doubles =   1024.0 Mbytes (distinct from heap & stack)
    total    =  268435449 doubles =   2048.0 Mbytes
    verify   = yes
    hardfail = no 


           Directory information
           ---------------------

  0 permanent = ./
  0 scratch   = /jet/home/hmt47/nwchem_scratch/




                                NWChem Input Module
                                -------------------


  library name resolved from: environment
  library file name is: </opt/packages/nwchem/nwchem7.2.2/share/nwchem/libraries/>
  


 Summary of "ao basis" -> "" (cartesian)
 ------------------------------------------------------------------------------
       Tag                 Description            Shells   Functions and Types
 ---------------- ------------------------------  ------  ---------------------
 *                        aug-cc-pVTZ                 on all atoms 


  pbe96 is a nonlocal functional; adding pw91lda local functional. 

 Scaling coordinates for geometry "geometry" by  1.889725989
 (inverse scale =  0.529177249)



                             Geometry "geometry" -> ""
                             -------------------------

 Output coordinates in angstroms (scale by  1.889725989 to convert to a.u.)

  No.       Tag          Charge          X              Y              Z
 ---- ---------------- ---------- -------------- -------------- --------------
    1 P                   15.0000    -0.00800466     0.07787028     0.03806168
    2 O                    8.0000    -0.04339266     1.45398342    -0.79802319
    3 O                    8.0000     1.55931371    -0.36708124     0.11580469
    4 O                    8.0000    -0.25026249     0.63897064     1.53866246
    5 O                    8.0000    -0.91893974    -0.96030246    -0.49574758
    6 H                    1.0000     1.72026464    -1.08537034    -0.52197852
    7 H                    1.0000    -0.33551774    -0.08676422     2.18183749
    8 H                    1.0000     0.53784995     2.13903692    -0.42247303

      Atomic Mass 
      ----------- 

      P                 30.973760
      O                 15.994910
      H                  1.007825


 Effective nuclear repulsion energy (a.u.)     276.6463971347

            Nuclear Dipole moment (a.u.) 
            ----------------------------
        X                 Y               Z
 ---------------- ---------------- ----------------
     8.6479105416    15.6082285389     8.8701511429


            XYZ format geometry
            -------------------
     8
 geometry
 P                    -0.00800466     0.07787028     0.03806168
 O                    -0.04339266     1.45398342    -0.79802319
 O                     1.55931371    -0.36708124     0.11580469
 O                    -0.25026249     0.63897064     1.53866246
 O                    -0.91893974    -0.96030246    -0.49574758
 H                     1.72026464    -1.08537034    -0.52197852
 H                    -0.33551774    -0.08676422     2.18183749
 H                     0.53784995     2.13903692    -0.42247303

 ==============================================================================
                                internuclear distances
 ------------------------------------------------------------------------------
       center one      |      center two      | atomic units |  angstroms
 ------------------------------------------------------------------------------
    2 O                |   1 P                |     3.04356  |     1.61058
    3 O                |   1 P                |     3.08235  |     1.63111
    4 O                |   1 P                |     3.06190  |     1.62029
    5 O                |   1 P                |     2.79817  |     1.48073
    6 H                |   3 O                |     1.84053  |     0.97397
    7 H                |   4 O                |     1.83958  |     0.97346
    8 H                |   2 O                |     1.84011  |     0.97374
 ------------------------------------------------------------------------------
                         number of included internuclear distances:          7
 ==============================================================================



 ==============================================================================
                                 internuclear angles
 ------------------------------------------------------------------------------
        center 1       |       center 2       |       center 3       |  degrees
 ------------------------------------------------------------------------------
    2 O                |   1 P                |   3 O                |   106.20
    2 O                |   1 P                |   4 O                |   100.46
    2 O                |   1 P                |   5 O                |   113.48
    3 O                |   1 P                |   4 O                |   101.19
    3 O                |   1 P                |   5 O                |   114.65
    4 O                |   1 P                |   5 O                |   118.99
    1 P                |   2 O                |   8 H                |   112.82
    1 P                |   3 O                |   6 H                |   109.19
    1 P                |   4 O                |   7 H                |   111.52
 ------------------------------------------------------------------------------
                            number of included internuclear angles:          9
 ==============================================================================





                           NWChem Geometry Optimization
                           ----------------------------


 maximum gradient threshold         (gmax) =   0.000450
 rms gradient threshold             (grms) =   0.000300
 maximum cartesian step threshold   (xmax) =   0.001800
 rms cartesian step threshold       (xrms) =   0.001200
 fixed trust radius                (trust) =   0.300000
 maximum step size to saddle      (sadstp) =   0.100000
 energy precision                  (eprec) =   5.0D-06
 maximum number of steps          (nptopt) =   40
 initial hessian option           (inhess) =    0
 line search option               (linopt) =    1
 hessian update option            (modupd) =    1
 saddle point option              (modsad) =    0
 initial eigen-mode to follow     (moddir) =    0
 initial variable to follow       (vardir) =    0
 follow first negative mode     (firstneg) =    T
 apply conjugacy                    (opcg) =    F
 source of zmatrix                         =           


          -------------------
          Energy Minimization
          -------------------


 Using old Hessian from previous optimization

          --------
          Step   0
          --------


                         Geometry "geometry" -> "geometry"
                         ---------------------------------

 Output coordinates in angstroms (scale by  1.889725989 to convert to a.u.)

  No.       Tag          Charge          X              Y              Z
 ---- ---------------- ---------- -------------- -------------- --------------
    1 P                   15.0000    -0.00800466     0.07787028     0.03806168
    2 O                    8.0000    -0.04339266     1.45398342    -0.79802319
    3 O                    8.0000     1.55931371    -0.36708124     0.11580469
    4 O                    8.0000    -0.25026249     0.63897064     1.53866246
    5 O                    8.0000    -0.91893974    -0.96030246    -0.49574758
    6 H                    1.0000     1.72026464    -1.08537034    -0.52197852
    7 H                    1.0000    -0.33551774    -0.08676422     2.18183749
    8 H                    1.0000     0.53784995     2.13903692    -0.42247303

      Atomic Mass 
      ----------- 

      P                 30.973760
      O                 15.994910
      H                  1.007825


 Effective nuclear repulsion energy (a.u.)     276.6463971347

            Nuclear Dipole moment (a.u.) 
            ----------------------------
        X                 Y               Z
 ---------------- ---------------- ----------------
     8.6479105416    15.6082285389     8.8701511429


                                 NWChem DFT Module
                                 -----------------


                      Basis "ao basis" -> "ao basis" (cartesian)
                      -----
  P (Phosphorous)
  ---------------
            Exponent  Coefficients 
       -------------- ---------------------------------------------------------
  1 S  3.12400000E+05  0.000058
  1 S  4.68000000E+04  0.000448
  1 S  1.06500000E+04  0.002349
  1 S  3.01800000E+03  0.009783
  1 S  9.86800000E+02  0.034147
  1 S  3.57400000E+02  0.100204
  1 S  1.39600000E+02  0.234372
  1 S  5.76300000E+01  0.382434
  1 S  2.46000000E+01  0.318088
  1 S  1.01200000E+01  0.070779
  1 S  4.28300000E+00 -0.001818
  1 S  1.80500000E+00  0.002162
  1 S  2.78200000E-01  0.000432

  2 S  3.12400000E+05 -0.000016
  2 S  4.68000000E+04 -0.000122
  2 S  1.06500000E+04 -0.000640
  2 S  3.01800000E+03 -0.002674
  2 S  9.86800000E+02 -0.009498
  2 S  3.57400000E+02 -0.028935
  2 S  1.39600000E+02 -0.074512
  2 S  5.76300000E+01 -0.149938
  2 S  2.46000000E+01 -0.189467
  2 S  1.01200000E+01  0.036327
  2 S  4.28300000E+00  0.528816
  2 S  1.80500000E+00  0.519115
  2 S  2.78200000E-01 -0.009257

  3 S  3.12400000E+05  0.000004
  3 S  4.68000000E+04  0.000033
  3 S  1.06500000E+04  0.000176
  3 S  3.01800000E+03  0.000734
  3 S  9.86800000E+02  0.002618
  3 S  3.57400000E+02  0.007979
  3 S  1.39600000E+02  0.020794
  3 S  5.76300000E+01  0.042445
  3 S  2.46000000E+01  0.056344
  3 S  1.01200000E+01 -0.012736
  3 S  4.28300000E+00 -0.196495
  3 S  1.80500000E+00 -0.353555
  3 S  2.78200000E-01  0.700912

  4 S  6.15800000E-01  1.000000

  5 S  1.05500000E-01  1.000000

  6 S  4.09000000E-02  1.000000

  7 P  5.04900000E+02  0.002337
  7 P  1.19400000E+02  0.018541
  7 P  3.79600000E+01  0.084969
  7 P  1.39500000E+01  0.244615
  7 P  5.45700000E+00  0.422766
  7 P  2.17700000E+00  0.368439
  7 P  2.87700000E-01 -0.003790

  8 P  5.04900000E+02 -0.000555
  8 P  1.19400000E+02 -0.004459
  8 P  3.79600000E+01 -0.020635
  8 P  1.39500000E+01 -0.061769
  8 P  5.45700000E+00 -0.108924
  8 P  2.17700000E+00 -0.105599
  8 P  2.87700000E-01  0.576981

  9 P  8.01000000E-01  1.000000

 10 P  9.71400000E-02  1.000000

 11 P  3.07000000E-02  1.000000

 12 D  2.16000000E-01  1.000000

 13 D  6.52000000E-01  1.000000

 14 D  7.75000000E-02  1.000000

 15 F  4.52000000E-01  1.000000

 16 F  1.65000000E-01  1.000000

  O (Oxygen)
  ----------
            Exponent  Coefficients 
       -------------- ---------------------------------------------------------
  1 S  1.53300000E+04  0.000508
  1 S  2.29900000E+03  0.003929
  1 S  5.22400000E+02  0.020243
  1 S  1.47300000E+02  0.079181
  1 S  4.75500000E+01  0.230687
  1 S  1.67600000E+01  0.433118
  1 S  6.20700000E+00  0.350260
  1 S  6.88200000E-01 -0.008154

  2 S  1.53300000E+04 -0.000115
  2 S  2.29900000E+03 -0.000895
  2 S  5.22400000E+02 -0.004636
  2 S  1.47300000E+02 -0.018724
  2 S  4.75500000E+01 -0.058463
  2 S  1.67600000E+01 -0.136463
  2 S  6.20700000E+00 -0.175740
  2 S  6.88200000E-01  0.603418

  3 S  1.75200000E+00  1.000000

  4 S  2.38400000E-01  1.000000

  5 S  7.37600000E-02  1.000000

  6 P  3.44600000E+01  0.015928
  6 P  7.74900000E+00  0.099740
  6 P  2.28000000E+00  0.310492

  7 P  7.15600000E-01  1.000000

  8 P  2.14000000E-01  1.000000

  9 P  5.97400000E-02  1.000000

 10 D  2.31400000E+00  1.000000

 11 D  6.45000000E-01  1.000000

 12 D  2.14000000E-01  1.000000

 13 F  1.42800000E+00  1.000000

 14 F  5.00000000E-01  1.000000

  H (Hydrogen)
  ------------
            Exponent  Coefficients 
       -------------- ---------------------------------------------------------
  1 S  3.38700000E+01  0.006068
  1 S  5.09500000E+00  0.045308
  1 S  1.15900000E+00  0.202822

  2 S  3.25800000E-01  1.000000

  3 S  1.02700000E-01  1.000000

  4 S  2.52600000E-02  1.000000

  5 P  1.40700000E+00  1.000000

  6 P  3.88000000E-01  1.000000

  7 P  1.02000000E-01  1.000000

  8 D  1.05700000E+00  1.000000

  9 D  2.47000000E-01  1.000000



 Summary of "ao basis" -> "ao basis" (cartesian)
 ------------------------------------------------------------------------------
       Tag                 Description            Shells   Functions and Types
 ---------------- ------------------------------  ------  ---------------------
 P                        aug-cc-pVTZ               16       59   6s5p3d2f
 O                        aug-cc-pVTZ               14       55   5s4p3d2f
 H                        aug-cc-pVTZ                9       25   4s3p2d




 Summary of "ao basis" -> "ao basis" (cartesian)
 ------------------------------------------------------------------------------
       Tag                 Description            Shells   Functions and Types
 ---------------- ------------------------------  ------  ---------------------
 P                        aug-cc-pVTZ               16       59   6s5p3d2f
 O                        aug-cc-pVTZ               14       55   5s4p3d2f
 H                        aug-cc-pVTZ                9       25   4s3p2d


  Caching 1-el integrals 

            General Information
            -------------------
          SCF calculation type: DFT
          Wavefunction type:  closed shell.
          No. of atoms     :     8
          No. of electrons :    50
           Alpha electrons :    25
            Beta electrons :    25
          Charge           :     0
          Spin multiplicity:     1
          Use of symmetry is: off; symmetry adaption is: off
          Maximum number of iterations: 200
          AO basis - number of functions:   354
                     number of shells:    99
          Convergence on energy requested:  1.00D-06
          Convergence on density requested:  1.00D-05
          Convergence on gradient requested:  5.00D-04

              XC Information
              --------------
          PerdewBurkeErnzerhof Exchange Functional  1.000          
            Perdew 1991 LDA Correlation Functional  1.000 local    
           PerdewBurkeErnz. Correlation Functional  1.000 non-local

             Grid Information
             ----------------
          Grid used for XC integration:  medium    
          Radial quadrature: Mura-Knowles        
          Angular quadrature: Lebedev. 
          Tag              B.-S. Rad. Rad. Pts. Rad. Cut. Ang. Pts.
          ---              ---------- --------- --------- ---------
          P                   1.00       88          13.0       590
          O                   0.60       49          14.0       434
          H                   0.35       45          15.0       434
          Grid pruning is: on 
          Number of quadrature shells:   419
          Spatial weights used:  Erf1

          Convergence Information
          -----------------------
          Convergence aids based upon iterative change in 
          total energy or number of iterations. 
          Levelshifting, if invoked, occurs when the 
          HOMO/LUMO gap drops below (HL_TOL):  1.00D-02
          DIIS, if invoked, will attempt to extrapolate 
          using up to (NFOCK): 10 stored Fock matrices.

                    Damping(40%)  Levelshifting(0.0)       DIIS
                  --------------- ------------------- ---------------
          dE  on:    start            0.00D+00            start   
          dE off:  200 iters          0.00D+00          200 iters 


      Screening Tolerance Information
      -------------------------------
          Density screening/tol_rho:  1.00D-10
          AO Gaussian exp screening on grid/accAOfunc:  14
          CD Gaussian exp screening on grid/accCDfunc:  20
          XC Gaussian exp screening on grid/accXCfunc:  20
          Schwarz screening/accCoul:  1.00D-08


 Forcing the number of linearly dependent vectors to be  0

      Superposition of Atomic Density Guess
      -------------------------------------

 Sum of atomic energies:        -641.28232714
   Time after variat. SCF:      0.7
   Time prior to 1st pass:      0.7

 Grid_pts file          = /jet/home/hmt47/nwchem_scratch//dft.gridpts.00
 Record size in doubles =  12289        No. of grid_pts per rec  =   3070
 Max. records in memory =      7        Max. recs in file   =  67550051


           Memory utilization after 1st SCF pass: 
           Heap Space remaining (MW):       33.46            33459430
          Stack Space remaining (MW):       67.11            67106948

   convergence    iter        energy       DeltaE   RMS-Dens  Diis-err    time
 ---------------- ----- ----------------- --------- --------- ---------  ------
 d=40,ls=0.0,diis     1   -644.7015008141 -9.21D+02  9.92D-03  5.82D+01     1.6
 d=40,ls=0.0,diis     2   -644.1349944672  5.67D-01  9.33D-03  9.94D+00     7.1
 d=40,ls=0.0,diis     3   -643.5120470187  6.23D-01  2.67D-03  4.50D+00    12.6
 d=40,ls=0.0,diis     4   -643.7760975031 -2.64D-01  1.09D-03  8.33D-01    18.1
 d=40,ls=0.0,diis     5   -643.8382909545 -6.22D-02  4.12D-04  1.48D-01    23.6
  Resetting Diis
 d=40,ls=0.0,diis     6   -643.8560028251 -1.77D-02  1.76D-04  3.22D-02    29.1
 d=40,ls=0.0,diis     7   -643.8622686241 -6.27D-03  2.96D-04  7.39D-03    34.7
 d=40,ls=0.0,diis     8   -643.8637694136 -1.50D-03  1.11D-04  6.88D-03    40.2
 d=40,ls=0.0,diis     9   -643.8652290820 -1.46D-03  6.12D-05  1.10D-03    45.7
 d=40,ls=0.0,diis    10   -643.8657293666 -5.00D-04  2.58D-05  2.40D-04    51.3
 d=40,ls=0.0,diis    11   -643.8659302433 -2.01D-04  9.00D-06  3.09D-05    56.8
 d=40,ls=0.0,diis    12   -643.8660070504 -7.68D-05  3.23D-06  3.75D-06    62.3
 d=40,ls=0.0,diis    13   -643.8660373086 -3.03D-05  1.93D-06  5.88D-07    67.8
 d=40,ls=0.0,diis    14   -643.8660493626 -1.21D-05  1.64D-06  9.66D-08    73.3
 d=40,ls=0.0,diis    15   -643.8660541835 -4.82D-06  7.69D-07  1.69D-08    78.9
 d=40,ls=0.0,diis    16   -643.8660561091 -1.93D-06  7.46D-07  3.24D-09    84.4
 d=40,ls=0.0,diis    17   -643.8660568750 -7.66D-07  8.12D-07  6.03D-10    89.9


         Total DFT energy =     -643.866056875036
      One electron energy =    -1438.472769015789
           Coulomb energy =      576.355568119227
    Exchange-Corr. energy =      -58.395253113142
 Nuclear repulsion energy =      276.646397134668

 Numeric. integr. density =       49.999999583396

     Total iterative time =     89.2s



                       DFT Final Molecular Orbital Analysis
                       ------------------------------------

 Vector    1  Occ=2.000000D+00  E=-7.644569D+01
              MO Center= -8.0D-03,  7.8D-02,  3.8D-02, r^2= 4.1D-03
   Bfn.  Coefficient  Atom+Function         Bfn.  Coefficient  Atom+Function  
  ----- ------------  ---------------      ----- ------------  ---------------
     1      1.005512  1 P  s                  3      0.050660  1 P  s          
     2      0.037200  1 P  s          

 Vector    2  Occ=2.000000D+00  E=-1.880670D+01
              MO Center= -2.5D-01,  6.4D-01,  1.5D+00, r^2= 1.5D-02
   Bfn.  Coefficient  Atom+Function         Bfn.  Coefficient  Atom+Function  
  ----- ------------  ---------------      ----- ------------  ---------------
   170      0.982165  4 O  s                172      0.064907  4 O  s          
   174     -0.043140  4 O  s                  5     -0.041750  1 P  s          
   173     -0.036486  4 O  s                204      0.031529  4 O  dzz        
   202      0.028022  4 O  dyy              199      0.026495  4 O  dxx        

 Vector    3  Occ=2.000000D+00  E=-1.880424D+01
              MO Center= -4.3D-02,  1.5D+00, -8.0D-01, r^2= 1.5D-02
   Bfn.  Coefficient  Atom+Function         Bfn.  Coefficient  Atom+Function  
  ----- ------------  ---------------      ----- ------------  ---------------
    60      0.982514  2 O  s                 62      0.064520  2 O  s          
    64     -0.057471  2 O  s                  5     -0.043195  1 P  s          
    63     -0.034642  2 O  s                 92      0.033651  2 O  dyy        
    94      0.029133  2 O  dzz               89      0.028401  2 O  dxx        
    58     -0.028115  1 P  fyzz             173      0.027273  4 O  s          

 Vector    4  Occ=2.000000D+00  E=-1.880328D+01
              MO Center=  1.6D+00, -3.7D-01,  1.2D-01, r^2= 1.5D-02
   Bfn.  Coefficient  Atom+Function         Bfn.  Coefficient  Atom+Function  
  ----- ------------  ---------------      ----- ------------  ---------------
   115      0.982209  3 O  s                117      0.064943  3 O  s          
     5     -0.060508  1 P  s                119     -0.044025  3 O  s          
   229     -0.036707  5 O  s                118     -0.034626  3 O  s          
   126     -0.033840  3 O  px               144      0.032877  3 O  dxx        
   147      0.029875  3 O  dyy              149      0.028739  3 O  dzz        

 Vector    5  Occ=2.000000D+00  E=-1.872768D+01
              MO Center= -9.2D-01, -9.6D-01, -5.0D-01, r^2= 1.5D-02
   Bfn.  Coefficient  Atom+Function         Bfn.  Coefficient  Atom+Function  
  ----- ------------  ---------------      ----- ------------  ---------------
   225      0.979421  5 O  s                227      0.064705  5 O  s          
   228     -0.052871  5 O  s                229     -0.047546  5 O  s          
   119     -0.035953  3 O  s                174     -0.032272  4 O  s          
    64     -0.031283  2 O  s                254      0.028608  5 O  dxx        
    39      0.028146  1 P  dzz              257      0.027730  5 O  dyy        

 Vector    6  Occ=2.000000D+00  E=-6.430690D+00
              MO Center= -6.7D-03,  8.0D-02,  3.9D-02, r^2= 9.1D-02
   Bfn.  Coefficient  Atom+Function         Bfn.  Coefficient  Atom+Function  
  ----- ------------  ---------------      ----- ------------  ---------------
     2      0.897870  1 P  s                  4      0.106121  1 P  s          
     3     -0.058914  1 P  s          

 Vector    7  Occ=2.000000D+00  E=-4.648172D+00
              MO Center= -7.9D-03,  7.8D-02,  3.8D-02, r^2= 8.3D-02
   Bfn.  Coefficient  Atom+Function         Bfn.  Coefficient  Atom+Function  
  ----- ------------  ---------------      ----- ------------  ---------------
     9      0.877192  1 P  pz                 8     -0.549341  1 P  py         
     7      0.256762  1 P  px                12      0.206344  1 P  pz         
    11     -0.129037  1 P  py                42     -0.086786  1 P  fxxz       
    49     -0.085053  1 P  fzzz              47     -0.082687  1 P  fyyz       
    10      0.061440  1 P  px                48      0.054402  1 P  fyzz       

 Vector    8  Occ=2.000000D+00  E=-4.647998D+00
              MO Center= -7.8D-03,  7.8D-02,  3.8D-02, r^2= 8.3D-02
   Bfn.  Coefficient  Atom+Function         Bfn.  Coefficient  Atom+Function  
  ----- ------------  ---------------      ----- ------------  ---------------
     7      0.808848  1 P  px                 9     -0.521868  1 P  pz         
     8     -0.456976  1 P  py                10      0.187781  1 P  px         
    12     -0.121726  1 P  pz                11     -0.109239  1 P  py         
    43     -0.079252  1 P  fxyy              45     -0.079041  1 P  fxzz       
    40     -0.077699  1 P  fxxx              47      0.052473  1 P  fyyz       

 Vector    9  Occ=2.000000D+00  E=-4.645200D+00
              MO Center= -9.4D-03,  7.6D-02,  3.7D-02, r^2= 8.3D-02
   Bfn.  Coefficient  Atom+Function         Bfn.  Coefficient  Atom+Function  
  ----- ------------  ---------------      ----- ------------  ---------------
     8      0.798419  1 P  py                 7      0.648485  1 P  px         
     9      0.310826  1 P  pz                11      0.201655  1 P  py         
    10      0.161197  1 P  px                41     -0.082472  1 P  fxxy       
    46     -0.082513  1 P  fyyy              48     -0.081709  1 P  fyzz       
    12      0.079738  1 P  pz                40     -0.066800  1 P  fxxx       

 Vector   10  Occ=2.000000D+00  E=-1.022297D+00
              MO Center=  2.6D-01,  4.3D-01,  2.5D-01, r^2= 2.2D+00
   Bfn.  Coefficient  Atom+Function         Bfn.  Coefficient  Atom+Function  
  ----- ------------  ---------------      ----- ------------  ---------------
   171      0.250337  4 O  s                  3      0.244357  1 P  s          
    61      0.243106  2 O  s                116      0.223183  3 O  s          
    63      0.141689  2 O  s                173      0.138011  4 O  s          
   118      0.121725  3 O  s                226      0.092123  5 O  s          
   172      0.072572  4 O  s                 62      0.070470  2 O  s          

 Vector   11  Occ=2.000000D+00  E=-9.624913D-01
              MO Center=  4.3D-02,  1.0D+00,  8.2D-02, r^2= 2.0D+00
   Bfn.  Coefficient  Atom+Function         Bfn.  Coefficient  Atom+Function  
  ----- ------------  ---------------      ----- ------------  ---------------
    61      0.381263  2 O  s                171     -0.269780  4 O  s          
    63      0.187446  2 O  s                173     -0.153238  4 O  s          
   116     -0.112358  3 O  s                 62      0.105124  2 O  s          
    12     -0.096989  1 P  pz                18      0.096796  1 P  pz         
   331      0.084915  8 H  s                 17     -0.083077  1 P  py         

 Vector   12  Occ=2.000000D+00  E=-9.621229D-01
              MO Center=  8.4D-01, -9.9D-02,  4.7D-01, r^2= 2.0D+00
   Bfn.  Coefficient  Atom+Function         Bfn.  Coefficient  Atom+Function  
  ----- ------------  ---------------      ----- ------------  ---------------
   116      0.381490  3 O  s                171     -0.277306  4 O  s          
   118      0.209181  3 O  s                173     -0.137714  4 O  s          
   117      0.105226  3 O  s                 10      0.085597  1 P  px         
    61     -0.082088  2 O  s                 16     -0.081000  1 P  px         
   280      0.080070  6 H  s                172     -0.076391  4 O  s          

 Vector   13  Occ=2.000000D+00  E=-8.884585D-01
              MO Center= -6.2D-01, -6.5D-01, -3.4D-01, r^2= 1.0D+00
   Bfn.  Coefficient  Atom+Function         Bfn.  Coefficient  Atom+Function  
  ----- ------------  ---------------      ----- ------------  ---------------
   226      0.441996  5 O  s                228      0.291512  5 O  s          
     3      0.155589  1 P  s                  5     -0.136795  1 P  s          
   229      0.126349  5 O  s                227      0.124286  5 O  s          
    11     -0.104480  1 P  py               116     -0.103850  3 O  s          
    10     -0.100830  1 P  px                16      0.100757  1 P  px         

 Vector   14  Occ=2.000000D+00  E=-6.015338D-01
              MO Center=  2.8D-01,  4.3D-01,  3.4D-01, r^2= 2.8D+00
   Bfn.  Coefficient  Atom+Function         Bfn.  Coefficient  Atom+Function  
  ----- ------------  ---------------      ----- ------------  ---------------
     3      0.327433  1 P  s                  5      0.171623  1 P  s          
   177     -0.159832  4 O  pz               180     -0.152052  4 O  pz         
    66     -0.134710  2 O  py               306     -0.130166  7 H  s          
    69     -0.127147  2 O  py               228     -0.124097  5 O  s          
   226     -0.118467  5 O  s                281     -0.103970  6 H  s          

 Vector   15  Occ=2.000000D+00  E=-5.300656D-01
              MO Center=  3.7D-01,  7.9D-01, -3.2D-01, r^2= 2.3D+00
   Bfn.  Coefficient  Atom+Function         Bfn.  Coefficient  Atom+Function  
  ----- ------------  ---------------      ----- ------------  ---------------
    66      0.221122  2 O  py                69      0.210054  2 O  py         
   331      0.158588  8 H  s                 12      0.140782  1 P  pz         
    17      0.132418  1 P  py                64     -0.127347  2 O  s          
   330      0.125834  8 H  s                 11     -0.122893  1 P  py         
   281     -0.113410  6 H  s                 65      0.112734  2 O  px         

 Vector   16  Occ=2.000000D+00  E=-5.143881D-01
              MO Center=  3.8D-01,  2.0D-01,  7.4D-01, r^2= 2.5D+00
   Bfn.  Coefficient  Atom+Function         Bfn.  Coefficient  Atom+Function  
  ----- ------------  ---------------      ----- ------------  ---------------
   177      0.211902  4 O  pz               180      0.198405  4 O  pz         
   306      0.152271  7 H  s                 10      0.143156  1 P  px         
   174     -0.142483  4 O  s                120     -0.129595  3 O  px         
    18      0.127668  1 P  pz               121      0.124655  3 O  py         
   123     -0.125160  3 O  px                12     -0.123490  1 P  pz         

 Vector   17  Occ=2.000000D+00  E=-4.229169D-01
              MO Center=  2.2D-01, -7.8D-02,  4.2D-01, r^2= 2.9D+00
   Bfn.  Coefficient  Atom+Function         Bfn.  Coefficient  Atom+Function  
  ----- ------------  ---------------      ----- ------------  ---------------
     3      0.200858  1 P  s                119     -0.185214  3 O  s          
   176     -0.172845  4 O  py               179     -0.165355  4 O  py         
   173     -0.160462  4 O  s                226     -0.154775  5 O  s          
   174     -0.142914  4 O  s                121     -0.139214  3 O  py         
   124     -0.135403  3 O  py               118     -0.133524  3 O  s          

 Vector   18  Occ=2.000000D+00  E=-4.053556D-01
              MO Center=  6.1D-01,  2.3D-01,  1.6D-01, r^2= 2.8D+00
   Bfn.  Coefficient  Atom+Function         Bfn.  Coefficient  Atom+Function  
  ----- ------------  ---------------      ----- ------------  ---------------
   118      0.199487  3 O  s                122      0.186633  3 O  pz         
   125      0.180851  3 O  pz                64      0.151989  2 O  s          
   119      0.147781  3 O  s                 63      0.145629  2 O  s          
   173     -0.141568  4 O  s                 65     -0.137663  2 O  px         
    68     -0.134351  2 O  px               176     -0.134067  4 O  py         

 Vector   19  Occ=2.000000D+00  E=-3.742969D-01
              MO Center=  1.2D-01,  9.0D-01, -1.4D-01, r^2= 2.6D+00
   Bfn.  Coefficient  Atom+Function         Bfn.  Coefficient  Atom+Function  
  ----- ------------  ---------------      ----- ------------  ---------------
    63      0.228793  2 O  s                 67     -0.206946  2 O  pz         
    70     -0.201009  2 O  pz                64      0.174323  2 O  s          
   173      0.160950  4 O  s                176      0.151253  4 O  py         
    65     -0.150442  2 O  px               174      0.148326  4 O  s          
   179      0.146695  4 O  py                68     -0.145274  2 O  px         

 Vector   20  Occ=2.000000D+00  E=-3.525607D-01
              MO Center= -3.9D-01, -2.6D-02,  3.8D-01, r^2= 2.9D+00
   Bfn.  Coefficient  Atom+Function         Bfn.  Coefficient  Atom+Function  
  ----- ------------  ---------------      ----- ------------  ---------------
   178      0.200934  4 O  px               175      0.199033  4 O  px         
   231     -0.171637  5 O  py               234     -0.160417  5 O  py         
   228      0.138578  5 O  s                226      0.122749  5 O  s          
   173     -0.119878  4 O  s                176     -0.120041  4 O  py         
   118     -0.118620  3 O  s                181      0.119133  4 O  px         

 Vector   21  Occ=2.000000D+00  E=-3.426784D-01
              MO Center=  5.2D-01,  6.2D-01, -1.8D-01, r^2= 2.6D+00
   Bfn.  Coefficient  Atom+Function         Bfn.  Coefficient  Atom+Function  
  ----- ------------  ---------------      ----- ------------  ---------------
    67      0.238306  2 O  pz                70      0.233596  2 O  pz         
   124     -0.159716  3 O  py               121     -0.157794  3 O  py         
   125      0.137358  3 O  pz               122      0.136119  3 O  pz         
    73      0.133612  2 O  pz                18      0.116383  1 P  pz         
    68     -0.103684  2 O  px               177      0.103021  4 O  pz         

 Vector   22  Occ=2.000000D+00  E=-3.308926D-01
              MO Center= -1.7D-01, -3.0D-02,  3.1D-01, r^2= 3.1D+00
   Bfn.  Coefficient  Atom+Function         Bfn.  Coefficient  Atom+Function  
  ----- ------------  ---------------      ----- ------------  ---------------
   175      0.218835  4 O  px               178      0.219797  4 O  px         
   231      0.148382  5 O  py                16      0.147564  1 P  px         
   181      0.144577  4 O  px               230      0.143305  5 O  px         
   120      0.141234  3 O  px               123      0.138926  3 O  px         
   234      0.132700  5 O  py               233      0.129283  5 O  px         

 Vector   23  Occ=2.000000D+00  E=-3.031117D-01
              MO Center=  4.0D-01,  4.8D-01,  4.6D-02, r^2= 2.9D+00
   Bfn.  Coefficient  Atom+Function         Bfn.  Coefficient  Atom+Function  
  ----- ------------  ---------------      ----- ------------  ---------------
    68      0.201757  2 O  px                65      0.198507  2 O  px         
   125      0.188787  3 O  pz               122      0.187429  3 O  pz         
   178     -0.165670  4 O  px               175     -0.163408  4 O  px         
    17     -0.141367  1 P  py                71      0.141568  2 O  px         
   174      0.141862  4 O  s                124     -0.137855  3 O  py         

 Vector   24  Occ=2.000000D+00  E=-2.714346D-01
              MO Center= -6.0D-01, -6.7D-01, -2.9D-01, r^2= 1.7D+00
   Bfn.  Coefficient  Atom+Function         Bfn.  Coefficient  Atom+Function  
  ----- ------------  ---------------      ----- ------------  ---------------
   232      0.299892  5 O  pz               235      0.297346  5 O  pz         
   238      0.199590  5 O  pz               234     -0.139465  5 O  py         
   231     -0.137298  5 O  py                18      0.101489  1 P  pz         
    64      0.088451  2 O  s                237     -0.087215  5 O  py         
    26     -0.081723  1 P  dyz              125     -0.078932  3 O  pz         

 Vector   25  Occ=2.000000D+00  E=-2.653524D-01
              MO Center= -5.4D-01, -6.5D-01, -3.0D-01, r^2= 1.9D+00
   Bfn.  Coefficient  Atom+Function         Bfn.  Coefficient  Atom+Function  
  ----- ------------  ---------------      ----- ------------  ---------------
   230      0.266083  5 O  px               233      0.264372  5 O  px         
   236      0.191231  5 O  px               231     -0.168656  5 O  py         
   234     -0.167476  5 O  py               282     -0.144292  6 H  s          
   237     -0.125980  5 O  py               119      0.120480  3 O  s          
   120      0.110388  3 O  px                18     -0.109199  1 P  pz         

 Vector   26  Occ=0.000000D+00  E=-5.360599D-02
              MO Center=  6.3D-01,  2.8D-01,  5.0D-01, r^2= 9.6D+00
   Bfn.  Coefficient  Atom+Function         Bfn.  Coefficient  Atom+Function  
  ----- ------------  ---------------      ----- ------------  ---------------
     5      0.438938  1 P  s                333     -0.339262  8 H  s          
   308     -0.325929  7 H  s                  6      0.311886  1 P  s          
   283     -0.285604  6 H  s                229      0.270429  5 O  s          
    17      0.227968  1 P  py                37     -0.187949  1 P  dyy        
   183      0.184845  4 O  pz                72      0.176901  2 O  py         

 Vector   27  Occ=0.000000D+00  E=-1.663016D-02
              MO Center=  2.6D-01,  9.9D-01,  1.1D+00, r^2= 1.2D+01
   Bfn.  Coefficient  Atom+Function         Bfn.  Coefficient  Atom+Function  
  ----- ------------  ---------------      ----- ------------  ---------------
   308      0.991547  7 H  s                333     -0.951057  8 H  s          
    64     -0.496043  2 O  s                 18     -0.473137  1 P  pz         
   174      0.377429  4 O  s                307      0.298062  7 H  s          
    38     -0.275407  1 P  dyz              186     -0.273531  4 O  pz         
    75      0.264857  2 O  py                17      0.216006  1 P  py         

 Vector   28  Occ=0.000000D+00  E=-1.414654D-02
              MO Center=  1.5D+00, -5.4D-01, -2.6D-01, r^2= 1.2D+01
   Bfn.  Coefficient  Atom+Function         Bfn.  Coefficient  Atom+Function  
  ----- ------------  ---------------      ----- ------------  ---------------
   283      1.215348  6 H  s                333     -0.642764  8 H  s          
   308     -0.516376  7 H  s                119      0.315055  3 O  s          
   282      0.291467  6 H  s                 16     -0.270551  1 P  px         
    64     -0.270046  2 O  s                 17      0.243775  1 P  py         
    18     -0.225591  1 P  pz               118     -0.190290  3 O  s          

 Vector   29  Occ=0.000000D+00  E= 2.586791D-02
              MO Center=  1.7D-01,  3.6D-02,  6.9D-02, r^2= 1.6D+01
   Bfn.  Coefficient  Atom+Function         Bfn.  Coefficient  Atom+Function  
  ----- ------------  ---------------      ----- ------------  ---------------
   119      1.706464  3 O  s                  6      1.682762  1 P  s          
    19     -1.439086  1 P  px               174      1.387049  4 O  s          
    16     -1.294022  1 P  px                21     -1.150641  1 P  pz         
    18     -1.016234  1 P  pz                37     -0.847673  1 P  dyy        
   332     -0.771340  8 H  s                 34     -0.711850  1 P  dxx        

 Vector   30  Occ=0.000000D+00  E= 4.074039D-02
              MO Center= -3.3D-02,  5.6D-01,  5.0D-01, r^2= 2.3D+01
   Bfn.  Coefficient  Atom+Function         Bfn.  Coefficient  Atom+Function  
  ----- ------------  ---------------      ----- ------------  ---------------
     6      9.706673  1 P  s                308     -1.887635  7 H  s          
   119     -1.854827  3 O  s                283     -1.791776  6 H  s          
     5      1.659142  1 P  s                 37     -1.355619  1 P  dyy        
    19      1.306591  1 P  px                39     -1.264872  1 P  dzz        
    34     -1.212344  1 P  dxx               21      1.086573  1 P  pz         

 Vector   31  Occ=0.000000D+00  E= 4.602324D-02
              MO Center=  5.3D-02, -8.2D-01,  7.3D-01, r^2= 1.7D+01
   Bfn.  Coefficient  Atom+Function         Bfn.  Coefficient  Atom+Function  
  ----- ------------  ---------------      ----- ------------  ---------------
     6      3.756702  1 P  s                 20      3.289190  1 P  py         
     5      2.539860  1 P  s                 64     -2.446636  2 O  s          
   333     -2.355998  8 H  s                 17      1.678677  1 P  py         
   174     -1.475123  4 O  s                 16     -1.097884  1 P  px         
   186      1.072393  4 O  pz               130     -0.891703  3 O  py         

 Vector   32  Occ=0.000000D+00  E= 4.947254D-02
              MO Center=  1.2D-02,  7.0D-01, -4.2D-01, r^2= 1.6D+01
   Bfn.  Coefficient  Atom+Function         Bfn.  Coefficient  Atom+Function  
  ----- ------------  ---------------      ----- ------------  ---------------
   174      5.233404  4 O  s                 21     -3.119619  1 P  pz         
    18     -2.552582  1 P  pz               307     -2.200409  7 H  s          
    19      1.955353  1 P  px               119     -1.953976  3 O  s          
   308      1.808101  7 H  s                 16      1.659775  1 P  px         
   283     -1.590747  6 H  s                  5     -1.534531  1 P  s          

 Vector   33  Occ=0.000000D+00  E= 5.907228D-02
              MO Center=  4.0D-01,  8.4D-01,  1.1D+00, r^2= 1.8D+01
   Bfn.  Coefficient  Atom+Function         Bfn.  Coefficient  Atom+Function  
  ----- ------------  ---------------      ----- ------------  ---------------
   119      3.015797  3 O  s                307     -3.014076  7 H  s          
   174      2.641892  4 O  s                308     -2.509321  7 H  s          
   333      2.292865  8 H  s                  5     -2.056004  1 P  s          
   229      1.884368  5 O  s                282     -1.621772  6 H  s          
    18      1.592954  1 P  pz                 6     -1.555350  1 P  s          

 Vector   34  Occ=0.000000D+00  E= 6.171303D-02
              MO Center=  8.9D-01,  1.8D-02,  2.3D-01, r^2= 1.1D+01
   Bfn.  Coefficient  Atom+Function         Bfn.  Coefficient  Atom+Function  
  ----- ------------  ---------------      ----- ------------  ---------------
   119      2.981942  3 O  s                 64      2.773763  2 O  s          
   332     -2.416756  8 H  s                  5     -1.657862  1 P  s          
   282     -1.450565  6 H  s                229      1.324219  5 O  s          
   307      1.189791  7 H  s                308      1.179654  7 H  s          
     6     -1.173537  1 P  s                 37     -1.046482  1 P  dyy        

 Vector   35  Occ=0.000000D+00  E= 6.533073D-02
              MO Center=  1.6D+00, -3.6D-02, -4.7D-02, r^2= 2.1D+01
   Bfn.  Coefficient  Atom+Function         Bfn.  Coefficient  Atom+Function  
  ----- ------------  ---------------      ----- ------------  ---------------
   283      3.433371  6 H  s                282      2.404755  6 H  s          
   333     -2.317815  8 H  s                 17      2.240683  1 P  py         
    20      1.869902  1 P  py               307     -1.634066  7 H  s          
    18     -1.501662  1 P  pz                16     -1.416777  1 P  px         
   174      1.406962  4 O  s                308     -1.321180  7 H  s          

 Vector   36  Occ=0.000000D+00  E= 7.393003D-02
              MO Center=  4.9D-01,  3.8D-01, -2.8D-01, r^2= 1.2D+01
   Bfn.  Coefficient  Atom+Function         Bfn.  Coefficient  Atom+Function  
  ----- ------------  ---------------      ----- ------------  ---------------
    64      4.795711  2 O  s                 18      3.931673  1 P  pz         
    16     -3.827038  1 P  px                17     -3.799087  1 P  py         
   174     -2.654971  4 O  s                  6      2.060623  1 P  s          
     5     -1.932328  1 P  s                229     -1.496918  5 O  s          
   186      1.413378  4 O  pz                75     -1.363915  2 O  py         

 Vector   37  Occ=0.000000D+00  E= 7.966190D-02
              MO Center=  6.0D-02,  3.5D-02,  4.5D-01, r^2= 1.4D+01
   Bfn.  Coefficient  Atom+Function         Bfn.  Coefficient  Atom+Function  
  ----- ------------  ---------------      ----- ------------  ---------------
    64     -3.857275  2 O  s                  5      3.627491  1 P  s          
    17      3.165198  1 P  py               174     -2.945607  4 O  s          
    36     -2.084832  1 P  dxz              307      1.796972  7 H  s          
    16     -1.524893  1 P  px               129     -1.423019  3 O  px         
     6     -1.381014  1 P  s                131      1.350500  3 O  pz         

 Vector   38  Occ=0.000000D+00  E= 8.752298D-02
              MO Center=  3.5D-02,  3.3D-01,  4.0D-01, r^2= 1.2D+01
   Bfn.  Coefficient  Atom+Function         Bfn.  Coefficient  Atom+Function  
  ----- ------------  ---------------      ----- ------------  ---------------
     6     10.312493  1 P  s                 39     -3.334179  1 P  dzz        
     5     -3.062143  1 P  s                 34     -2.754672  1 P  dxx        
    37     -2.591535  1 P  dyy              174      2.305147  4 O  s          
    18     -1.903020  1 P  pz               332      1.756517  8 H  s          
    17     -1.435459  1 P  py                75     -1.090994  2 O  py         

 Vector   39  Occ=0.000000D+00  E= 9.312630D-02
              MO Center= -2.9D-02,  1.0D-01,  4.7D-02, r^2= 1.1D+01
   Bfn.  Coefficient  Atom+Function         Bfn.  Coefficient  Atom+Function  
  ----- ------------  ---------------      ----- ------------  ---------------
     5      7.136042  1 P  s                119     -5.552453  3 O  s          
   229     -4.358463  5 O  s                 17     -4.218573  1 P  py         
     6     -3.906496  1 P  s                 34      3.068413  1 P  dxx        
    37      2.288957  1 P  dyy              129      2.029065  3 O  px         
   282      1.683378  6 H  s                 20     -1.641365  1 P  py         

 Vector   40  Occ=0.000000D+00  E= 9.697917D-02
              MO Center=  1.9D-01,  3.7D-01,  3.2D-01, r^2= 1.3D+01
   Bfn.  Coefficient  Atom+Function         Bfn.  Coefficient  Atom+Function  
  ----- ------------  ---------------      ----- ------------  ---------------
    18      5.412589  1 P  pz                64      4.582443  2 O  s          
   174     -3.928211  4 O  s                 17     -2.353311  1 P  py         
    16     -2.323357  1 P  px               186      2.328829  4 O  pz         
   308     -2.324778  7 H  s                 38      2.081661  1 P  dyz        
    75     -1.877416  2 O  py               333      1.747903  8 H  s          

 Vector   41  Occ=0.000000D+00  E= 1.027441D-01
              MO Center= -3.3D-01,  3.0D-02, -3.2D-01, r^2= 9.0D+00
   Bfn.  Coefficient  Atom+Function         Bfn.  Coefficient  Atom+Function  
  ----- ------------  ---------------      ----- ------------  ---------------
     6     -4.922090  1 P  s                  5      4.580964  1 P  s          
   229     -2.759022  5 O  s                282      2.614636  6 H  s          
    17     -2.337699  1 P  py                37      1.791691  1 P  dyy        
   119     -1.729667  3 O  s                 39      1.709501  1 P  dzz        
    34      1.296499  1 P  dxx               21     -1.202555  1 P  pz         

 Vector   42  Occ=0.000000D+00  E= 1.250175D-01
              MO Center= -4.7D-02,  3.1D-01, -1.1D-02, r^2= 1.4D+01
   Bfn.  Coefficient  Atom+Function         Bfn.  Coefficient  Atom+Function  
  ----- ------------  ---------------      ----- ------------  ---------------
     6      8.890669  1 P  s                174     -7.949519  4 O  s          
   307      5.178640  7 H  s                 17      4.790638  1 P  py         
    64     -4.678285  2 O  s                282      2.781662  6 H  s          
   185      2.589459  4 O  py                76     -2.084152  2 O  pz         
   332      2.079064  8 H  s                119     -1.806785  3 O  s          

 Vector   43  Occ=0.000000D+00  E= 1.338517D-01
              MO Center=  6.4D-01, -1.6D-02,  7.4D-01, r^2= 1.7D+01
   Bfn.  Coefficient  Atom+Function         Bfn.  Coefficient  Atom+Function  
  ----- ------------  ---------------      ----- ------------  ---------------
     5     18.590948  1 P  s                229     -8.347542  5 O  s          
   119     -6.881245  3 O  s                174     -6.675831  4 O  s          
    37      4.501439  1 P  dyy               34      4.357907  1 P  dxx        
   332     -3.826728  8 H  s                186      3.513394  4 O  pz         
     6      3.491306  1 P  s                 39      3.298684  1 P  dzz        

 Vector   44  Occ=0.000000D+00  E= 1.397334D-01
              MO Center=  1.5D-01,  6.5D-01, -2.1D-01, r^2= 1.6D+01
   Bfn.  Coefficient  Atom+Function         Bfn.  Coefficient  Atom+Function  
  ----- ------------  ---------------      ----- ------------  ---------------
    64    -10.693358  2 O  s                  5     10.101982  1 P  s          
   332      4.555553  8 H  s                 75      3.740602  2 O  py         
    39      3.588592  1 P  dzz               16     -3.436085  1 P  px         
    35     -2.978801  1 P  dxy               76     -2.176248  2 O  pz         
   131     -2.078084  3 O  pz               282     -2.032561  6 H  s          

 Vector   45  Occ=0.000000D+00  E= 1.405636D-01
              MO Center=  9.8D-02,  2.9D-01,  1.2D-01, r^2= 1.6D+01
   Bfn.  Coefficient  Atom+Function         Bfn.  Coefficient  Atom+Function  
  ----- ------------  ---------------      ----- ------------  ---------------
   119      9.341711  3 O  s                 16     -5.396666  1 P  px         
   282     -4.384359  6 H  s                 17      4.305514  1 P  py         
   174     -3.561005  4 O  s                 38      3.008985  1 P  dyz        
   129     -3.013439  3 O  px               186      2.466961  4 O  pz         
   283      2.260233  6 H  s                 21      2.077952  1 P  pz         

 Vector   46  Occ=0.000000D+00  E= 1.549569D-01
              MO Center=  4.9D-01,  1.8D-01,  1.8D-01, r^2= 1.4D+01
   Bfn.  Coefficient  Atom+Function         Bfn.  Coefficient  Atom+Function  
  ----- ------------  ---------------      ----- ------------  ---------------
   282      7.059096  6 H  s                 17      5.507127  1 P  py         
   307     -5.236529  7 H  s                229      5.096553  5 O  s          
   119     -4.477376  3 O  s                 64     -3.520161  2 O  s          
   130      2.811523  3 O  py                 6     -2.522769  1 P  s          
   174      2.499069  4 O  s                 75      2.367376  2 O  py         

 Vector   47  Occ=0.000000D+00  E= 1.575958D-01
              MO Center= -3.4D-02,  4.5D-01, -2.3D-01, r^2= 1.3D+01
   Bfn.  Coefficient  Atom+Function         Bfn.  Coefficient  Atom+Function  
  ----- ------------  ---------------      ----- ------------  ---------------
    16      7.703056  1 P  px               119     -6.654894  3 O  s          
     5      6.532573  1 P  s                 64     -6.400359  2 O  s          
   332      5.947170  8 H  s                 18      5.582124  1 P  pz         
     6     -4.221388  1 P  s                174     -4.085641  4 O  s          
   229      3.951497  5 O  s                 17      3.724023  1 P  py         

 Vector   48  Occ=0.000000D+00  E= 1.715422D-01
              MO Center=  1.7D-01,  3.6D-01,  7.1D-02, r^2= 1.3D+01
   Bfn.  Coefficient  Atom+Function         Bfn.  Coefficient  Atom+Function  
  ----- ------------  ---------------      ----- ------------  ---------------
   119      7.088170  3 O  s                 16     -5.021847  1 P  px         
   229     -4.414518  5 O  s                282     -3.885214  6 H  s          
   174     -3.444922  4 O  s                 21      2.897966  1 P  pz         
   131     -2.880999  3 O  pz                64     -2.831593  2 O  s          
    18      2.569165  1 P  pz               332      2.502105  8 H  s          

 Vector   49  Occ=0.000000D+00  E= 1.801921D-01
              MO Center= -5.0D-01, -2.5D-01,  2.9D-02, r^2= 1.8D+01
   Bfn.  Coefficient  Atom+Function         Bfn.  Coefficient  Atom+Function  
  ----- ------------  ---------------      ----- ------------  ---------------
   229     11.624530  5 O  s                  5     -9.977377  1 P  s          
    37     -5.003526  1 P  dyy               64      4.740315  2 O  s          
    18      4.709651  1 P  pz               239      4.468250  5 O  px         
    19     -4.029995  1 P  px                35     -3.710782  1 P  dxy        
    16      3.428308  1 P  px                34     -2.948126  1 P  dxx        

 Vector   50  Occ=0.000000D+00  E= 1.833159D-01
              MO Center= -5.5D-01, -2.7D-01,  6.2D-01, r^2= 1.7D+01
   Bfn.  Coefficient  Atom+Function         Bfn.  Coefficient  Atom+Function  
  ----- ------------  ---------------      ----- ------------  ---------------
     6      8.955621  1 P  s                 64      8.276702  2 O  s          
   229      6.982268  5 O  s                 16      5.714222  1 P  px         
    20     -5.358954  1 P  py                18      5.248762  1 P  pz         
     5     -4.889988  1 P  s                 37     -4.855908  1 P  dyy        
    34     -4.123498  1 P  dxx              240      4.068219  5 O  py         

 Vector   51  Occ=0.000000D+00  E= 1.910695D-01
              MO Center= -3.7D-02, -2.0D-01, -1.0D+00, r^2= 1.6D+01
   Bfn.  Coefficient  Atom+Function         Bfn.  Coefficient  Atom+Function  
  ----- ------------  ---------------      ----- ------------  ---------------
    18      6.186342  1 P  pz               174     -5.772971  4 O  s          
    21      5.137785  1 P  pz                 6     -4.086913  1 P  s          
   307      3.630042  7 H  s                 19     -3.140349  1 P  px         
    76     -2.646946  2 O  pz               241     -2.506827  5 O  pz         
    39      2.327788  1 P  dzz              185      2.219265  4 O  py         

 Vector   52  Occ=0.000000D+00  E= 2.080104D-01
              MO Center= -1.6D-01,  3.7D-01,  3.2D-01, r^2= 1.5D+01
   Bfn.  Coefficient  Atom+Function         Bfn.  Coefficient  Atom+Function  
  ----- ------------  ---------------      ----- ------------  ---------------
     6     17.922284  1 P  s                  5     -8.589588  1 P  s          
    37     -6.907653  1 P  dyy               34     -5.609212  1 P  dxx        
    39     -5.473178  1 P  dzz              229      4.486133  5 O  s          
   174      4.407955  4 O  s                307     -3.974868  7 H  s          
    20      3.607056  1 P  py                64      3.198693  2 O  s          

 Vector   53  Occ=0.000000D+00  E= 2.145711D-01
              MO Center=  6.4D-02,  7.6D-02,  1.8D-01, r^2= 1.3D+01
   Bfn.  Coefficient  Atom+Function         Bfn.  Coefficient  Atom+Function  
  ----- ------------  ---------------      ----- ------------  ---------------
   332      7.413769  8 H  s                174      5.887320  4 O  s          
   307     -5.807745  7 H  s                229     -5.407749  5 O  s          
   119      3.904918  3 O  s                 16     -3.451279  1 P  px         
   240     -2.966961  5 O  py                75     -2.880001  2 O  py         
   185     -2.804138  4 O  py                18     -2.285622  1 P  pz         

 Vector   54  Occ=0.000000D+00  E= 2.278107D-01
              MO Center=  4.6D-01,  7.7D-01,  1.5D-01, r^2= 1.2D+01
   Bfn.  Coefficient  Atom+Function         Bfn.  Coefficient  Atom+Function  
  ----- ------------  ---------------      ----- ------------  ---------------
     6     14.699377  1 P  s                 34     -7.167623  1 P  dxx        
   229      6.492795  5 O  s                307      6.164257  7 H  s          
   282      5.972969  6 H  s                 39     -5.816127  1 P  dzz        
    37     -4.711435  1 P  dyy              174     -4.228336  4 O  s          
    64     -3.613909  2 O  s                332      3.077484  8 H  s          

 Vector   55  Occ=0.000000D+00  E= 2.360049D-01
              MO Center=  1.4D-01, -4.7D-02,  3.1D-01, r^2= 1.3D+01
   Bfn.  Coefficient  Atom+Function         Bfn.  Coefficient  Atom+Function  
  ----- ------------  ---------------      ----- ------------  ---------------
   174     17.397699  4 O  s                 17    -11.601589  1 P  py         
    18     -7.552751  1 P  pz                39     -7.548608  1 P  dzz        
    64      7.137480  2 O  s                 37     -6.448369  1 P  dyy        
     5     -5.514187  1 P  s                186     -4.554964  4 O  pz         
     6      4.066704  1 P  s                228     -3.618621  5 O  s          

 Vector   56  Occ=0.000000D+00  E= 2.423614D-01
              MO Center= -1.2D-01, -1.1D-01,  1.7D-01, r^2= 1.2D+01
   Bfn.  Coefficient  Atom+Function         Bfn.  Coefficient  Atom+Function  
  ----- ------------  ---------------      ----- ------------  ---------------
    64     10.173727  2 O  s                119     -9.470159  3 O  s          
   174     -8.860546  4 O  s                 16      7.121682  1 P  px         
    18      6.764017  1 P  pz               229      3.920571  5 O  s          
    38      3.209394  1 P  dyz              129      3.137180  3 O  px         
   307      3.072640  7 H  s                  6     -2.943239  1 P  s          

 Vector   57  Occ=0.000000D+00  E= 2.530605D-01
              MO Center= -6.5D-02,  1.0D-01,  3.1D-01, r^2= 1.2D+01
   Bfn.  Coefficient  Atom+Function         Bfn.  Coefficient  Atom+Function  
  ----- ------------  ---------------      ----- ------------  ---------------
   119     17.296141  3 O  s                 16     -9.050820  1 P  px         
    34     -5.962048  1 P  dxx              174     -5.502967  4 O  s          
   229     -5.511581  5 O  s                  6      4.628573  1 P  s          
   129     -4.289481  3 O  px                35      3.943391  1 P  dxy        
    64      3.504478  2 O  s                282     -3.437905  6 H  s          

 Vector   58  Occ=0.000000D+00  E= 2.595486D-01
              MO Center=  4.6D-01,  6.2D-01,  1.3D-01, r^2= 1.2D+01
   Bfn.  Coefficient  Atom+Function         Bfn.  Coefficient  Atom+Function  
  ----- ------------  ---------------      ----- ------------  ---------------
   174     12.407931  4 O  s                307     -8.250119  7 H  s          
    64     -7.194103  2 O  s                 18     -3.918885  1 P  pz         
   185     -3.269587  4 O  py               119      2.741919  3 O  s          
     5     -2.709663  1 P  s                131     -2.663136  3 O  pz         
    38     -2.636364  1 P  dyz               36      2.294846  1 P  dxz        

 Vector   59  Occ=0.000000D+00  E= 2.726459D-01
              MO Center=  4.6D-01, -3.1D-01, -6.5D-01, r^2= 1.2D+01
   Bfn.  Coefficient  Atom+Function         Bfn.  Coefficient  Atom+Function  
  ----- ------------  ---------------      ----- ------------  ---------------
    64     11.100474  2 O  s                119     -9.500155  3 O  s          
   282      9.426450  6 H  s                332     -6.754929  8 H  s          
   307     -6.293602  7 H  s                 17     -5.273669  1 P  py         
     6     -3.483715  1 P  s                229     -3.402696  5 O  s          
    76      3.278590  2 O  pz               174      2.563018  4 O  s          

 Vector   60  Occ=0.000000D+00  E= 2.909752D-01
              MO Center=  7.4D-01, -1.3D-01,  5.0D-02, r^2= 1.2D+01
   Bfn.  Coefficient  Atom+Function         Bfn.  Coefficient  Atom+Function  
  ----- ------------  ---------------      ----- ------------  ---------------
   119     10.608231  3 O  s                 64      8.777775  2 O  s          
    18      8.215995  1 P  pz               174     -8.109036  4 O  s          
   332     -6.448061  8 H  s                282     -4.876859  6 H  s          
    16     -4.025149  1 P  px               229      3.995716  5 O  s          
     6     -3.729364  1 P  s                  5     -2.823470  1 P  s          

 Vector   61  Occ=0.000000D+00  E= 2.947081D-01
              MO Center=  8.3D-03,  2.6D-01,  1.1D+00, r^2= 1.2D+01
   Bfn.  Coefficient  Atom+Function         Bfn.  Coefficient  Atom+Function  
  ----- ------------  ---------------      ----- ------------  ---------------
   229      9.306927  5 O  s                 17      6.052432  1 P  py         
   307     -5.589304  7 H  s                 16      4.098166  1 P  px         
   174      3.029087  4 O  s                 75      2.993310  2 O  py         
   119     -2.636461  3 O  s                316     -2.345698  7 H  py         
   332     -2.356801  8 H  s                 34     -2.288476  1 P  dxx        

 Vector   62  Occ=0.000000D+00  E= 2.980722D-01
              MO Center=  8.5D-01,  1.1D+00, -4.8D-02, r^2= 1.2D+01
   Bfn.  Coefficient  Atom+Function         Bfn.  Coefficient  Atom+Function  
  ----- ------------  ---------------      ----- ------------  ---------------
   332      8.477343  8 H  s                  5     -6.397464  1 P  s          
   119      4.552856  3 O  s                 34     -3.823623  1 P  dxx        
   229      3.745519  5 O  s                  6      3.396385  1 P  s          
    36     -3.396262  1 P  dxz               37     -3.054224  1 P  dyy        
    64     -2.878488  2 O  s                 18      2.782769  1 P  pz         

 Vector   63  Occ=0.000000D+00  E= 3.097142D-01
              MO Center=  1.4D-01,  2.4D-01,  6.4D-01, r^2= 1.3D+01
   Bfn.  Coefficient  Atom+Function         Bfn.  Coefficient  Atom+Function  
  ----- ------------  ---------------      ----- ------------  ---------------
    64     15.495206  2 O  s                 18      5.796132  1 P  pz         
   282     -5.460290  6 H  s                  5     -4.815215  1 P  s          
   119      4.616050  3 O  s                  6     -4.057823  1 P  s          
    17     -4.034738  1 P  py               307     -3.952809  7 H  s          
   332     -3.634161  8 H  s                186      3.492242  4 O  pz         

 Vector   64  Occ=0.000000D+00  E= 3.193108D-01
              MO Center= -2.5D-03, -6.0D-02, -1.4D-01, r^2= 1.4D+01
   Bfn.  Coefficient  Atom+Function         Bfn.  Coefficient  Atom+Function  
  ----- ------------  ---------------      ----- ------------  ---------------
   229     16.504172  5 O  s                  5    -13.181857  1 P  s          
    17     11.639902  1 P  py                64     -6.863232  2 O  s          
    37     -6.282844  1 P  dyy              119      5.419812  3 O  s          
    34     -3.519675  1 P  dxx               58     -3.412787  1 P  fyzz       
   239      3.397540  5 O  px               307      3.411000  7 H  s          

 Vector   65  Occ=0.000000D+00  E= 3.198737D-01
              MO Center=  8.7D-02,  7.1D-01,  8.5D-01, r^2= 1.3D+01
   Bfn.  Coefficient  Atom+Function         Bfn.  Coefficient  Atom+Function  
  ----- ------------  ---------------      ----- ------------  ---------------
   174     15.004755  4 O  s                 18     -8.216976  1 P  pz         
     5     -7.247655  1 P  s                 16      6.929384  1 P  px         
   186     -4.647399  4 O  pz                34     -3.715350  1 P  dxx        
   307     -3.455361  7 H  s                119     -3.379825  3 O  s          
    36      3.286673  1 P  dxz               38     -3.077141  1 P  dyz        

 Vector   66  Occ=0.000000D+00  E= 3.316167D-01
              MO Center=  1.6D-01,  7.0D-01, -1.3D-01, r^2= 1.4D+01
   Bfn.  Coefficient  Atom+Function         Bfn.  Coefficient  Atom+Function  
  ----- ------------  ---------------      ----- ------------  ---------------
     5     38.574473  1 P  s                174    -24.612607  4 O  s          
    64    -20.808770  2 O  s                229    -18.812165  5 O  s          
   119    -17.615381  3 O  s                 37     12.796033  1 P  dyy        
    39     12.581806  1 P  dzz               34     10.523292  1 P  dxx        
     6      7.106820  1 P  s                 75      6.184674  2 O  py         

 Vector   67  Occ=0.000000D+00  E= 3.368692D-01
              MO Center=  6.6D-01, -3.9D-01, -7.8D-02, r^2= 1.2D+01
   Bfn.  Coefficient  Atom+Function         Bfn.  Coefficient  Atom+Function  
  ----- ------------  ---------------      ----- ------------  ---------------
   229     14.223552  5 O  s                 17     11.427561  1 P  py         
     6     -6.254853  1 P  s                119      6.284463  3 O  s          
     5     -5.698473  1 P  s                 36     -5.377373  1 P  dxz        
    38     -5.095636  1 P  dyz              174      4.569967  4 O  s          
    34     -4.098483  1 P  dxx               39     -3.839819  1 P  dzz        

 Vector   68  Occ=0.000000D+00  E= 3.539901D-01
              MO Center=  2.6D-01,  2.4D-01,  3.9D-01, r^2= 1.3D+01
   Bfn.  Coefficient  Atom+Function         Bfn.  Coefficient  Atom+Function  
  ----- ------------  ---------------      ----- ------------  ---------------
    64     19.492696  2 O  s                  5    -15.998724  1 P  s          
     6      9.942207  1 P  s                 18      9.232548  1 P  pz         
    34     -7.285682  1 P  dxx               38      6.949800  1 P  dyz        
   174     -6.318616  4 O  s                229      6.150809  5 O  s          
    37     -5.810051  1 P  dyy               39     -5.479961  1 P  dzz        

 Vector   69  Occ=0.000000D+00  E= 3.554609D-01
              MO Center=  4.3D-01,  3.0D-01, -1.3D-01, r^2= 1.1D+01
   Bfn.  Coefficient  Atom+Function         Bfn.  Coefficient  Atom+Function  
  ----- ------------  ---------------      ----- ------------  ---------------
   119     15.036294  3 O  s                 64    -10.609880  2 O  s          
    16     -9.019744  1 P  px               332      7.445701  8 H  s          
   282     -6.412337  6 H  s                  6     -5.855387  1 P  s          
    39      5.328940  1 P  dzz              307     -5.353503  7 H  s          
    38      4.654152  1 P  dyz              129     -4.351423  3 O  px         

 Vector   70  Occ=0.000000D+00  E= 3.712994D-01
              MO Center=  5.8D-01,  6.1D-01,  3.4D-01, r^2= 1.1D+01
   Bfn.  Coefficient  Atom+Function         Bfn.  Coefficient  Atom+Function  
  ----- ------------  ---------------      ----- ------------  ---------------
   229     20.053439  5 O  s                  5    -15.443730  1 P  s          
    35    -13.386940  1 P  dxy              174      8.618642  4 O  s          
    37     -7.463885  1 P  dyy               18     -6.925432  1 P  pz         
   332      6.783871  8 H  s                 64     -6.410188  2 O  s          
   119      6.191214  3 O  s                 17      5.816091  1 P  py         

 Vector   71  Occ=0.000000D+00  E= 3.949392D-01
              MO Center= -2.0D-01, -2.4D-02,  2.0D-01, r^2= 1.2D+01
   Bfn.  Coefficient  Atom+Function         Bfn.  Coefficient  Atom+Function  
  ----- ------------  ---------------      ----- ------------  ---------------
    16     27.634197  1 P  px                17     19.469709  1 P  py         
   119    -13.324441  3 O  s                229      9.605545  5 O  s          
     5      8.942479  1 P  s                 64     -8.185686  2 O  s          
    55     -7.433299  1 P  fxzz             174     -7.250202  4 O  s          
    50     -7.091445  1 P  fxxx              53     -7.092617  1 P  fxyy       

 Vector   72  Occ=0.000000D+00  E= 4.047618D-01
              MO Center=  1.7D-01,  1.1D-01,  2.4D-01, r^2= 1.1D+01
   Bfn.  Coefficient  Atom+Function         Bfn.  Coefficient  Atom+Function  
  ----- ------------  ---------------      ----- ------------  ---------------
    18     21.414500  1 P  pz                17    -14.863430  1 P  py         
   174    -12.957928  4 O  s                 35     -8.687222  1 P  dxy        
   229      8.440304  5 O  s                332      8.246711  8 H  s          
    16      7.497747  1 P  px                59     -5.157900  1 P  fzzz       
    58      5.119684  1 P  fyzz              52     -4.928065  1 P  fxxz       

 Vector   73  Occ=0.000000D+00  E= 4.083012D-01
              MO Center=  8.8D-02,  1.6D-01,  5.5D-02, r^2= 9.6D+00
   Bfn.  Coefficient  Atom+Function         Bfn.  Coefficient  Atom+Function  
  ----- ------------  ---------------      ----- ------------  ---------------
    16     20.060906  1 P  px               119    -18.451420  3 O  s          
   229     14.307340  5 O  s                 17    -13.386426  1 P  py         
    18     12.722508  1 P  pz                 5    -10.086636  1 P  s          
    37     -8.271899  1 P  dyy              307     -7.938619  7 H  s          
    51      6.264058  1 P  fxxy             282      6.223351  6 H  s          

 Vector   74  Occ=0.000000D+00  E= 4.139472D-01
              MO Center= -5.3D-02, -1.1D-01, -2.5D-02, r^2= 9.1D+00
   Bfn.  Coefficient  Atom+Function         Bfn.  Coefficient  Atom+Function  
  ----- ------------  ---------------      ----- ------------  ---------------
    64     13.275156  2 O  s                282    -13.329643  6 H  s          
   119     12.939714  3 O  s                332    -12.523733  8 H  s          
   174    -11.790989  4 O  s                 18      9.282872  1 P  pz         
   307      8.435112  7 H  s                 36     -6.868976  1 P  dxz        
    38      6.415412  1 P  dyz               37      5.456256  1 P  dyy        

 Vector   75  Occ=0.000000D+00  E= 4.342541D-01
              MO Center=  3.1D-01, -2.5D-01, -1.4D-01, r^2= 1.1D+01
   Bfn.  Coefficient  Atom+Function         Bfn.  Coefficient  Atom+Function  
  ----- ------------  ---------------      ----- ------------  ---------------
    18     25.147224  1 P  pz                17     22.469848  1 P  py         
    64    -12.056076  2 O  s                229     10.885454  5 O  s          
    16     -9.920245  1 P  px                38     -9.446947  1 P  dyz        
   174     -7.108875  4 O  s                 57     -7.058846  1 P  fyyz       
   307     -6.649278  7 H  s                119      6.602097  3 O  s          

 Vector   76  Occ=0.000000D+00  E= 4.505420D-01
              MO Center=  4.5D-01,  1.7D-02,  5.5D-01, r^2= 9.8D+00
   Bfn.  Coefficient  Atom+Function         Bfn.  Coefficient  Atom+Function  
  ----- ------------  ---------------      ----- ------------  ---------------
   282     16.885851  6 H  s                307    -15.851995  7 H  s          
    18      9.548971  1 P  pz               174      7.038778  4 O  s          
   119     -6.955857  3 O  s                 35      5.981848  1 P  dxy        
    16     -4.356374  1 P  px               317      4.132648  7 H  pz         
   290     -4.056492  6 H  px                17      3.476136  1 P  py         

 Vector   77  Occ=0.000000D+00  E= 4.808704D-01
              MO Center=  1.0D-01,  6.5D-01, -4.7D-01, r^2= 1.0D+01
   Bfn.  Coefficient  Atom+Function         Bfn.  Coefficient  Atom+Function  
  ----- ------------  ---------------      ----- ------------  ---------------
   332     25.358535  8 H  s                  5     14.925625  1 P  s          
    64    -14.016132  2 O  s                 16    -12.836088  1 P  px         
    18    -11.987951  1 P  pz               119     11.764767  3 O  s          
    17    -11.402331  1 P  py               282    -10.546840  6 H  s          
   174      9.022760  4 O  s                228     -9.017164  5 O  s          

 Vector   78  Occ=0.000000D+00  E= 4.824459D-01
              MO Center=  1.4D-01,  1.3D-01,  5.3D-01, r^2= 9.4D+00
   Bfn.  Coefficient  Atom+Function         Bfn.  Coefficient  Atom+Function  
  ----- ------------  ---------------      ----- ------------  ---------------
   174     17.872546  4 O  s                282    -17.001383  6 H  s          
   307    -17.047795  7 H  s                 16     13.914960  1 P  px         
    17    -13.184438  1 P  py                 5    -10.027475  1 P  s          
   229      9.653012  5 O  s                 64      9.005092  2 O  s          
    35     -8.130500  1 P  dxy               37     -6.051680  1 P  dyy        

 Vector   79  Occ=0.000000D+00  E= 4.918596D-01
              MO Center=  2.4D-01,  2.1D-01,  2.8D-01, r^2= 8.6D+00
   Bfn.  Coefficient  Atom+Function         Bfn.  Coefficient  Atom+Function  
  ----- ------------  ---------------      ----- ------------  ---------------
     5     14.802813  1 P  s                  6     12.293322  1 P  s          
   229     11.258971  5 O  s                 34    -10.952964  1 P  dxx        
    37    -10.000681  1 P  dyy              173     -9.590346  4 O  s          
   119      8.111569  3 O  s                228     -7.038841  5 O  s          
    39     -6.918840  1 P  dzz               64      6.665580  2 O  s          

 Vector   80  Occ=0.000000D+00  E= 5.084526D-01
              MO Center=  5.6D-01,  3.9D-01, -1.3D-01, r^2= 9.4D+00
   Bfn.  Coefficient  Atom+Function         Bfn.  Coefficient  Atom+Function  
  ----- ------------  ---------------      ----- ------------  ---------------
     5     16.425136  1 P  s                  6     14.358009  1 P  s          
    64     14.075873  2 O  s                332    -11.999689  8 H  s          
    39    -11.624517  1 P  dzz              229     11.374178  5 O  s          
    37     -9.737763  1 P  dyy               34     -9.156899  1 P  dxx        
   228     -8.032892  5 O  s                118     -7.944452  3 O  s          

 Vector   81  Occ=0.000000D+00  E= 5.469471D-01
              MO Center=  1.1D-01,  2.7D-01,  6.7D-01, r^2= 8.4D+00
   Bfn.  Coefficient  Atom+Function         Bfn.  Coefficient  Atom+Function  
  ----- ------------  ---------------      ----- ------------  ---------------
   307    -16.630794  7 H  s                174     15.734092  4 O  s          
   332     -9.923964  8 H  s                 17     -9.463458  1 P  py         
   119      9.398807  3 O  s                 64      8.826114  2 O  s          
   282     -8.566851  6 H  s                228     -6.926757  5 O  s          
     5      6.541954  1 P  s                 16     -6.144898  1 P  px         

 Vector   82  Occ=0.000000D+00  E= 5.704385D-01
              MO Center= -3.5D-02,  3.6D-02,  3.2D-01, r^2= 7.1D+00
   Bfn.  Coefficient  Atom+Function         Bfn.  Coefficient  Atom+Function  
  ----- ------------  ---------------      ----- ------------  ---------------
   307     13.630353  7 H  s                174     -8.304292  4 O  s          
    17      6.877630  1 P  py               332     -6.762971  8 H  s          
    16     -4.904189  1 P  px                38      4.632953  1 P  dyz        
   306     -4.454191  7 H  s                 58     -3.390003  1 P  fyzz       
    50      3.088777  1 P  fxxx             282     -2.600010  6 H  s          

 Vector   83  Occ=0.000000D+00  E= 6.005621D-01
              MO Center= -2.0D-01,  3.8D-01,  1.9D-01, r^2= 7.7D+00
   Bfn.  Coefficient  Atom+Function         Bfn.  Coefficient  Atom+Function  
  ----- ------------  ---------------      ----- ------------  ---------------
   307     -9.414822  7 H  s                 18      9.355836  1 P  pz         
    16     -6.435286  1 P  px               174      5.892925  4 O  s          
    59     -4.021138  1 P  fzzz               5     -3.765779  1 P  s          
   332      3.409824  8 H  s                 57     -3.229696  1 P  fyyz       
    53      2.977908  1 P  fxyy              55      2.695167  1 P  fxzz       

 Vector   84  Occ=0.000000D+00  E= 6.046755D-01
              MO Center=  1.2D-01,  7.1D-01,  5.1D-01, r^2= 8.2D+00
   Bfn.  Coefficient  Atom+Function         Bfn.  Coefficient  Atom+Function  
  ----- ------------  ---------------      ----- ------------  ---------------
     5     10.000488  1 P  s                307     -8.941410  7 H  s          
   174      6.999579  4 O  s                  6     -6.027554  1 P  s          
    64      5.962195  2 O  s                228     -4.918494  5 O  s          
    63     -4.338043  2 O  s                 51     -3.996160  1 P  fxxy       
    57     -3.980390  1 P  fyyz             173     -3.898363  4 O  s          

 Vector   85  Occ=0.000000D+00  E= 6.159837D-01
              MO Center=  2.1D-01,  1.7D-01, -1.6D-01, r^2= 7.9D+00
   Bfn.  Coefficient  Atom+Function         Bfn.  Coefficient  Atom+Function  
  ----- ------------  ---------------      ----- ------------  ---------------
   282      7.364465  6 H  s                 18      6.361912  1 P  pz         
    17      5.849279  1 P  py               229      4.728349  5 O  s          
   332      4.020958  8 H  s                 54      3.943496  1 P  fxyz       
   119     -3.537770  3 O  s                307     -3.465991  7 H  s          
    57     -3.225430  1 P  fyyz              38     -2.894081  1 P  dyz        

 Vector   86  Occ=0.000000D+00  E= 6.271470D-01
              MO Center= -4.4D-01,  2.6D-01,  8.0D-02, r^2= 8.7D+00
   Bfn.  Coefficient  Atom+Function         Bfn.  Coefficient  Atom+Function  
  ----- ------------  ---------------      ----- ------------  ---------------
     5     18.430884  1 P  s                 57     -5.471538  1 P  fyyz       
   229     -5.430562  5 O  s                174     -5.120175  4 O  s          
   118     -4.853577  3 O  s                 34      4.723913  1 P  dxx        
    18      4.364630  1 P  pz                37      4.280303  1 P  dyy        
   119     -4.152089  3 O  s                  6     -3.722340  1 P  s          

 Vector   87  Occ=0.000000D+00  E= 6.318352D-01
              MO Center=  2.3D-01,  1.3D-01,  1.3D-01, r^2= 8.3D+00
   Bfn.  Coefficient  Atom+Function         Bfn.  Coefficient  Atom+Function  
  ----- ------------  ---------------      ----- ------------  ---------------
     5      9.595804  1 P  s                  6     -6.308895  1 P  s          
    39      6.228496  1 P  dzz              119     -6.132649  3 O  s          
    64     -5.292887  2 O  s                 37      5.166054  1 P  dyy        
   307     -5.024379  7 H  s                 34      4.597889  1 P  dxx        
   229     -3.698819  5 O  s                 57     -3.578854  1 P  fyyz       

 Vector   88  Occ=0.000000D+00  E= 6.436670D-01
              MO Center=  5.7D-01,  3.5D-01, -1.8D-01, r^2= 7.4D+00
   Bfn.  Coefficient  Atom+Function         Bfn.  Coefficient  Atom+Function  
  ----- ------------  ---------------      ----- ------------  ---------------
     5      8.405112  1 P  s                 16      5.973005  1 P  px         
   332     -4.932845  8 H  s                  6     -4.527958  1 P  s          
    64      4.046619  2 O  s                 51     -4.019580  1 P  fxxy       
    59      3.399264  1 P  fzzz             307     -3.356358  7 H  s          
    18     -3.007800  1 P  pz                52      2.830380  1 P  fxxz       

 Vector   89  Occ=0.000000D+00  E= 6.537270D-01
              MO Center=  3.9D-01,  8.4D-02,  2.9D-02, r^2= 8.0D+00
   Bfn.  Coefficient  Atom+Function         Bfn.  Coefficient  Atom+Function  
  ----- ------------  ---------------      ----- ------------  ---------------
[...]
   Bfn.  Coefficient  Atom+Function         Bfn.  Coefficient  Atom+Function  
  ----- ------------  ---------------      ----- ------------  ---------------
   118     11.938256  3 O  s                173     -8.756947  4 O  s          
   123      6.067156  3 O  px               126      5.688849  3 O  px         
   204      5.247623  4 O  dzz               57     -4.865683  1 P  fyyz       
    18      4.834670  1 P  pz               174     -4.781187  4 O  s          
   183     -4.781780  4 O  pz               144     -4.693728  3 O  dxx        

 Vector  351  Occ=0.000000D+00  E= 1.729653D+01
              MO Center= -6.6D-01, -6.1D-01, -2.3D-01, r^2= 1.9D+00
   Bfn.  Coefficient  Atom+Function         Bfn.  Coefficient  Atom+Function  
  ----- ------------  ---------------      ----- ------------  ---------------
   228     14.378606  5 O  s                237     -6.451412  5 O  py         
   236     -6.327354  5 O  px               257     -6.157837  5 O  dyy        
   254     -6.037760  5 O  dxx              233     -5.947074  5 O  px         
   234     -5.946709  5 O  py                64      5.571028  2 O  s          
   259     -5.574207  5 O  dzz               55     -5.492052  1 P  fxzz       

 Vector  352  Occ=0.000000D+00  E= 1.766543D+01
              MO Center=  8.4D-03,  6.2D-01,  1.6D-01, r^2= 3.7D+00
   Bfn.  Coefficient  Atom+Function         Bfn.  Coefficient  Atom+Function  
  ----- ------------  ---------------      ----- ------------  ---------------
     5     14.838076  1 P  s                 63    -12.043013  2 O  s          
   182      8.924507  4 O  py               126      8.635191  3 O  px         
   331     -7.720169  8 H  s                 51     -6.994659  1 P  fxxy       
    52      7.011227  1 P  fxxz              73      6.424409  2 O  pz         
   236     -6.447766  5 O  px               238     -6.296159  5 O  pz         

 Vector  353  Occ=0.000000D+00  E= 1.835848D+01
              MO Center=  4.2D-01,  5.3D-01, -1.2D-01, r^2= 3.8D+00
   Bfn.  Coefficient  Atom+Function         Bfn.  Coefficient  Atom+Function  
  ----- ------------  ---------------      ----- ------------  ---------------
     5     59.991613  1 P  s                228    -23.560656  5 O  s          
   126     23.438867  3 O  px               183     23.179563  4 O  pz         
    72     22.089199  2 O  py               173    -17.464259  4 O  s          
    73    -14.596575  2 O  pz               237    -13.818268  5 O  py         
   236    -13.342888  5 O  px               118    -12.710741  3 O  s          

 Vector  354  Occ=0.000000D+00  E= 2.340258D+01
              MO Center=  6.8D-02,  1.4D-01,  8.7D-02, r^2= 3.4D+00
   Bfn.  Coefficient  Atom+Function         Bfn.  Coefficient  Atom+Function  
  ----- ------------  ---------------      ----- ------------  ---------------
     3     53.578511  1 P  s                  2     36.089998  1 P  s          
     5    -19.140449  1 P  s                 33     -7.366113  1 P  dzz        
    28     -7.322083  1 P  dxx               31     -7.144809  1 P  dyy        
    72      6.855716  2 O  py               236     -6.576617  5 O  px         
   331     -6.507258  8 H  s                306     -6.442043  7 H  s          


 center of mass
 --------------
 x =   0.13449735 y =   0.30200432 z =   0.16515512

 moments of inertia (a.u.)
 ------------------
         419.410383464454           1.304894006781          -7.371829930444
           1.304894006781         404.486815705646          -8.018815765753
          -7.371829930444          -8.018815765753         417.722877953356

     Multipole analysis of the density
     ---------------------------------

     L   x y z        total         alpha         beta         nuclear
     -   - - -        -----         -----         ----         -------
     0   0 0 0     -0.000000    -25.000000    -25.000000     50.000000

     1   1 0 0      1.035083     -3.690716     -3.690716      8.416515
     1   0 1 0      0.312939     -7.659308     -7.659308     15.631555
     1   0 0 1      0.600165     -4.297206     -4.297206      9.194576

     2   2 0 0    -27.679184    -67.657327    -67.657327    107.635470
     2   1 1 0     -1.098376     -0.659377     -0.659377      0.220378
     2   1 0 1     -3.187187     -2.297120     -2.297120      1.407053
     2   0 2 0    -24.374682    -73.553833    -73.553833    122.732984
     2   0 1 1     -1.278348     -3.359131     -3.359131      5.439914
     2   0 0 2    -24.466614    -68.329178    -68.329178    112.191743

 Line search: 
     step= 1.00 grad=-4.0D-07 hess= 2.3D-08 energy=   -643.866061 mode=accept  
 new step= 1.00                   predicted energy=   -643.866061

          --------
          Step   4
          --------


                         Geometry "geometry" -> "geometry"
                         ---------------------------------

 Output coordinates in angstroms (scale by  1.889725989 to convert to a.u.)

  No.       Tag          Charge          X              Y              Z
 ---- ---------------- ---------- -------------- -------------- --------------
    1 P                   15.0000    -0.01091106     0.07819358     0.04210801
    2 O                    8.0000    -0.04919152     1.45475993    -0.79334135
    3 O                    8.0000     1.55795142    -0.36279053     0.11851336
    4 O                    8.0000    -0.25201520     0.63499300     1.54378966
    5 O                    8.0000    -0.92170580    -0.96027525    -0.49183249
    6 H                    1.0000     1.72384002    -1.07139786    -0.52844912
    7 H                    1.0000    -0.34241218    -0.09252212     2.18396185
    8 H                    1.0000     0.55575534     2.12938225    -0.43860592

      Atomic Mass 
      ----------- 

      P                 30.973760
      O                 15.994910
      H                  1.007825


 Effective nuclear repulsion energy (a.u.)     276.6474247753

            Nuclear Dipole moment (a.u.) 
            ----------------------------
        X                 Y               Z
 ---------------- ---------------- ----------------
     8.4165152919    15.6315549249     9.1945758810


                                 NWChem DFT Module
                                 -----------------




 Summary of "ao basis" -> "ao basis" (cartesian)
 ------------------------------------------------------------------------------
       Tag                 Description            Shells   Functions and Types
 ---------------- ------------------------------  ------  ---------------------
 P                        aug-cc-pVTZ               16       59   6s5p3d2f
 O                        aug-cc-pVTZ               14       55   5s4p3d2f
 H                        aug-cc-pVTZ                9       25   4s3p2d



  The DFT is already converged 

         Total DFT energy =   -643.866061222873


            General Information
            -------------------
          SCF calculation type: DFT
          Wavefunction type:  closed shell.
          No. of atoms     :     8
          No. of electrons :    50
           Alpha electrons :    25
            Beta electrons :    25
          Charge           :     0
          Spin multiplicity:     1
          Use of symmetry is: off; symmetry adaption is: off
          Maximum number of iterations: 200
          AO basis - number of functions:   354
                     number of shells:    99
          Convergence on energy requested:  1.00D-06
          Convergence on density requested:  1.00D-05
          Convergence on gradient requested:  5.00D-04

              XC Information
              --------------
          PerdewBurkeErnzerhof Exchange Functional  1.000          
            Perdew 1991 LDA Correlation Functional  1.000 local    
           PerdewBurkeErnz. Correlation Functional  1.000 non-local

             Grid Information
             ----------------
          Grid used for XC integration:  medium    
          Radial quadrature: Mura-Knowles        
          Angular quadrature: Lebedev. 
          Tag              B.-S. Rad. Rad. Pts. Rad. Cut. Ang. Pts.
          ---              ---------- --------- --------- ---------
          P                   1.00       88          13.0       590
          O                   0.60       49          14.0       434
          H                   0.35       45          15.0       434
          Grid pruning is: on 
          Number of quadrature shells:   419
          Spatial weights used:  Erf1

          Convergence Information
          -----------------------
          Convergence aids based upon iterative change in 
          total energy or number of iterations. 
          Levelshifting, if invoked, occurs when the 
          HOMO/LUMO gap drops below (HL_TOL):  1.00D-02
          DIIS, if invoked, will attempt to extrapolate 
          using up to (NFOCK): 10 stored Fock matrices.

                    Damping(40%)  Levelshifting(0.0)       DIIS
                  --------------- ------------------- ---------------
          dE  on:    start            ASAP                start   
          dE off:  200 iters        200 iters           200 iters 


      Screening Tolerance Information
      -------------------------------
          Density screening/tol_rho:  1.00D-10
          AO Gaussian exp screening on grid/accAOfunc:  14
          CD Gaussian exp screening on grid/accCDfunc:  20
          XC Gaussian exp screening on grid/accXCfunc:  20
          Schwarz screening/accCoul:  1.00D-08



                            NWChem DFT Gradient Module
                            --------------------------



  charge          =   0.00
  wavefunction    = closed shell



                         DFT ENERGY GRADIENTS

    atom               coordinates                        gradient
                 x          y          z           x          y          z
   1 P      -0.020619   0.147764   0.079573    0.000024  -0.000100   0.000098
   2 O      -0.092958   2.749098  -1.499198    0.000162   0.000176   0.000037
   3 O       2.944101  -0.685575   0.223958   -0.000031  -0.000017   0.000020
   4 O      -0.476240   1.199963   2.917339   -0.000057   0.000150  -0.000183
   5 O      -1.741771  -1.814657  -0.929429   -0.000050  -0.000034  -0.000020
   6 H       3.257585  -2.024648  -0.998624   -0.000002   0.000048   0.000000
   7 H      -0.647065  -0.174841   4.127089    0.000062  -0.000140   0.000111
   8 H       1.050225   4.023949  -0.828845   -0.000108  -0.000084  -0.000064

                 ----------------------------------------
                 |  Time  |  1-e(secs)   |  2-e(secs)   |
                 ----------------------------------------
                 |  CPU   |       0.01   |      16.59   |
                 ----------------------------------------
                 |  WALL  |       0.01   |      16.68   |
                 ----------------------------------------

  Step       Energy      Delta E   Gmax     Grms     Xrms     Xmax   Walltime
  ---- ---------------- -------- -------- -------- -------- -------- --------
@    4    -643.86606122 -3.7D-07  0.00018  0.00009  0.00048  0.00128    272.6
                                     ok       ok       ok       ok  


      ----------------------
      Optimization converged
      ----------------------


  Step       Energy      Delta E   Gmax     Grms     Xrms     Xmax   Walltime
  ---- ---------------- -------- -------- -------- -------- -------- --------
@    4    -643.86606122 -3.7D-07  0.00018  0.00009  0.00048  0.00128    272.6
                                     ok       ok       ok       ok  



                         Geometry "geometry" -> "geometry"
                         ---------------------------------

 Output coordinates in angstroms (scale by  1.889725989 to convert to a.u.)

  No.       Tag          Charge          X              Y              Z
 ---- ---------------- ---------- -------------- -------------- --------------
    1 P                   15.0000    -0.01091106     0.07819358     0.04210801
    2 O                    8.0000    -0.04919152     1.45475993    -0.79334135
    3 O                    8.0000     1.55795142    -0.36279053     0.11851336
    4 O                    8.0000    -0.25201520     0.63499300     1.54378966
    5 O                    8.0000    -0.92170580    -0.96027525    -0.49183249
    6 H                    1.0000     1.72384002    -1.07139786    -0.52844912
    7 H                    1.0000    -0.34241218    -0.09252212     2.18396185
    8 H                    1.0000     0.55575534     2.12938225    -0.43860592

      Atomic Mass 
      ----------- 

      P                 30.973760
      O                 15.994910
      H                  1.007825


 Effective nuclear repulsion energy (a.u.)     276.6474247753

            Nuclear Dipole moment (a.u.) 
            ----------------------------
        X                 Y               Z
 ---------------- ---------------- ----------------
     8.4165152919    15.6315549249     9.1945758810

 ==============================================================================
                                internuclear distances
 ------------------------------------------------------------------------------
       center one      |      center two      | atomic units |  angstroms
 ------------------------------------------------------------------------------
    2 O                |   1 P                |     3.04379  |     1.61071
    3 O                |   1 P                |     3.08300  |     1.63145
    4 O                |   1 P                |     3.06066  |     1.61963
    5 O                |   1 P                |     2.79849  |     1.48090
    6 H                |   3 O                |     1.84014  |     0.97376
    7 H                |   4 O                |     1.83923  |     0.97328
    8 H                |   2 O                |     1.83888  |     0.97309
 ------------------------------------------------------------------------------
                         number of included internuclear distances:          7
 ==============================================================================



 ==============================================================================
                                 internuclear angles
 ------------------------------------------------------------------------------
        center 1       |       center 2       |       center 3       |  degrees
 ------------------------------------------------------------------------------
    2 O                |   1 P                |   3 O                |   106.15
    2 O                |   1 P                |   4 O                |   100.58
    2 O                |   1 P                |   5 O                |   113.43
    3 O                |   1 P                |   4 O                |   101.11
    3 O                |   1 P                |   5 O                |   114.76
    4 O                |   1 P                |   5 O                |   118.93
    1 P                |   2 O                |   8 H                |   112.87
    1 P                |   3 O                |   6 H                |   109.23
    1 P                |   4 O                |   7 H                |   111.51
 ------------------------------------------------------------------------------
                            number of included internuclear angles:          9
 ==============================================================================




 Task  times  cpu:      269.2s     wall:      272.5s


                                NWChem Input Module
                                -------------------


 Summary of allocated global arrays
-----------------------------------
  No active global arrays


MA_summarize_allocated_blocks: starting scan ...
MA_summarize_allocated_blocks: scan completed: 0 heap blocks, 0 stack blocks
MA usage statistics:

	allocation statistics:
					      heap	     stack
					      ----	     -----
	current number of blocks	         0	         0
	maximum number of blocks	        24	        53
	current total bytes		         0	         0
	maximum total bytes		 269199592	  74389432
	maximum total K-bytes		    269200	     74390
	maximum total M-bytes		       270	        75


                                     CITATION
                                     --------
                Please cite the following reference when publishing
                           results obtained with NWChem:

          E. Apra, E. J. Bylaska, W. A. de Jong, N. Govind, K. Kowalski,
       T. P. Straatsma, M. Valiev, H. J. J. van Dam, Y. Alexeev, J. Anchell,
       V. Anisimov, F. W. Aquino, R. Atta-Fynn, J. Autschbach, N. P. Bauman,
     J. C. Becca, D. E. Bernholdt, K. Bhaskaran-Nair, S. Bogatko, P. Borowski,
         J. Boschen, J. Brabec, A. Bruner, E. Cauet, Y. Chen, G. N. Chuev,
      C. J. Cramer, J. Daily, M. J. O. Deegan, T. H. Dunning Jr., M. Dupuis,
   K. G. Dyall, G. I. Fann, S. A. Fischer, A. Fonari, H. Fruchtl, L. Gagliardi,
      J. Garza, N. Gawande, S. Ghosh, K. Glaesemann, A. W. Gotz, J. Hammond,
       V. Helms, E. D. Hermes, K. Hirao, S. Hirata, M. Jacquelin, L. Jensen,
   B. G. Johnson, H. Jonsson, R. A. Kendall, M. Klemm, R. Kobayashi, V. Konkov,
      S. Krishnamoorthy, M. Krishnan, Z. Lin, R. D. Lins, R. J. Littlefield,
      A. J. Logsdail, K. Lopata, W. Ma, A. V. Marenich, J. Martin del Campo,
   D. Mejia-Rodriguez, J. E. Moore, J. M. Mullin, T. Nakajima, D. R. Nascimento,
    J. A. Nichols, P. J. Nichols, J. Nieplocha, A. Otero-de-la-Roza, B. Palmer,
    A. Panyala, T. Pirojsirikul, B. Peng, R. Peverati, J. Pittner, L. Pollack,
   R. M. Richard, P. Sadayappan, G. C. Schatz, W. A. Shelton, D. W. Silverstein,
   D. M. A. Smith, T. A. Soares, D. Song, M. Swart, H. L. Taylor, G. S. Thomas,
            V. Tipparaju, D. G. Truhlar, K. Tsemekhman, T. Van Voorhis,
      A. Vazquez-Mayagoitia, P. Verma, O. Villa, A. Vishnu, K. D. Vogiatzis,
        D. Wang, J. H. Weare, M. J. Williamson, T. L. Windus, K. Wolinski,
        A. T. Wong, Q. Wu, C. Yang, Q. Yu, M. Zacharias, Z. Zhang, Y. Zhao,
                                and R. J. Harrison
                        "NWChem: Past, present, and future
                         J. Chem. Phys. 152, 184102 (2020)
                               doi:10.1063/5.0004997

                                      AUTHORS
                                      -------
  E. Apra, E. J. Bylaska, N. Govind, K. Kowalski, M. Valiev, D. Mejia-Rodriguez,
       A. Kunitsa, N. P. Bauman, A. Panyala, W. A. de Jong, T. P. Straatsma,
   H. J. J. van Dam, D. Wang, T. L. Windus, J. Hammond, J. Autschbach, A. Woods,
    K. Bhaskaran-Nair, J. Brabec, K. Lopata, S. A. Fischer, S. Krishnamoorthy,
     M. Jacquelin, W. Ma, M. Klemm, O. Villa, Y. Chen, V. Anisimov, F. Aquino,
     S. Hirata, M. T. Hackler, E. Hermes, L. Jensen, J. E. Moore, J. C. Becca,
      V. Konjkov, T. Risthaus, M. Malagoli, A. Marenich, A. Otero-de-la-Roza,
        J. Mullin, P. Nichols, R. Peverati, J. Pittner, Y. Zhao, P.-D. Fan,
        A. Fonari, M. J. Williamson, R. J. Harrison, J. R. Rehr, M. Dupuis,
     D. Silverstein, D. M. A. Smith, J. Nieplocha, V. Tipparaju, M. Krishnan,
     B. E. Van Kuiken, A. Vazquez-Mayagoitia, M. Swart, Q. Wu, T. Van Voorhis,
     A. A. Auer, M. Nooijen, L. D. Crosby, E. Brown, G. Cisneros, G. I. Fann,
   H. Fruchtl, J. Garza, K. Hirao, R. A. Kendall, J. A. Nichols, K. Tsemekhman,
    K. Wolinski, J. Anchell, D. E. Bernholdt, P. Borowski, T. Clark, D. Clerc,
   H. Dachsel, M. J. O. Deegan, K. Dyall, D. Elwood, E. Glendening, M. Gutowski,
   A. C. Hess, J. Jaffe, B. G. Johnson, J. Ju, R. Kobayashi, R. Kutteh, Z. Lin,
   R. Littlefield, X. Long, B. Meng, T. Nakajima, S. Niu, L. Pollack, M. Rosing,
   K. Glaesemann, G. Sandrone, M. Stave, H. Taylor, G. Thomas, J. H. van Lenthe,
                               A. T. Wong, Z. Zhang.

 Total times  cpu:      269.3s     wall:      272.7s
