 argument  1 = m1e/mol.nwi
                                         
                                         


             Northwest Computational Chemistry Package (NWChem) 7.2.2
             --------------------------------------------------------


                    Environmental Molecular Sciences Laboratory
                       Pacific Northwest National Laboratory
                                Richland, WA 99352

                              Copyright (c) 1994-2022
                       Pacific Northwest National Laboratory
                            Battelle Memorial Institute

             NWChem is an open-source computational chemistry package
                        distributed under the terms of the
                      Educational Community License (ECL) 2.0
             A copy of the license is included with this distribution
                              in the LICENSE.TXT file

                                  ACKNOWLEDGMENT
                                  --------------

            This software and its documentation were developed at the
            EMSL at Pacific Northwest National Laboratory, a multiprogram
            national laboratory, operated for the U.S. Department of Energy
            by Battelle under Contract Number DE-AC05-76RL01830. Support
            for this work was provided by the Department of Energy Office
            of Biological and Environmental Research, Office of Basic
            Energy Sciences, and the Office of Advanced Scientific Computing.


           Job information
           ---------------

    hostname        = r192.ib.bridges2.psc.edu
    program         = nwchem
    date            = Tue Oct  1 16:50:31 2024

    compiled        = Mon_Mar_18_17:03:37_2024
    source          = /ocean/projects/pscstaff/mmadrid/nwchem-7.2.2
    nwchem branch   = 7.2.2
    nwchem revision = 74936fb9
    ga revision     = 5.8.0
    use scalapack   = F
    input           = m1e/mol.nwi
    prefix          = dft.
    data base       = .//dft.db
    status          = startup
    nproc           =       15
    time left       =     -1s



           Memory information
           ------------------

    heap     =   67108858 doubles =    512.0 Mbytes
    stack    =   67108863 doubles =    512.0 Mbytes
    global   =  134217728 doubles =   1024.0 Mbytes (distinct from heap & stack)
    total    =  268435449 doubles =   2048.0 Mbytes
    verify   = yes
    hardfail = no 


           Directory information
           ---------------------

  0 permanent = ./
  0 scratch   = /jet/home/hmt47/nwchem_scratch/




                                NWChem Input Module
                                -------------------


  library name resolved from: environment
  library file name is: </opt/packages/nwchem/nwchem7.2.2/share/nwchem/libraries/>
  


 Summary of "ao basis" -> "" (cartesian)
 ------------------------------------------------------------------------------
       Tag                 Description            Shells   Functions and Types
 ---------------- ------------------------------  ------  ---------------------
 *                        aug-cc-pVTZ                 on all atoms 


  pbe96 is a nonlocal functional; adding pw91lda local functional. 

 Scaling coordinates for geometry "geometry" by  1.889725989
 (inverse scale =  0.529177249)



                             Geometry "geometry" -> ""
                             -------------------------

 Output coordinates in angstroms (scale by  1.889725989 to convert to a.u.)

  No.       Tag          Charge          X              Y              Z
 ---- ---------------- ---------- -------------- -------------- --------------
    1 P                   15.0000    -0.02632344     0.06402140    -0.06240298
    2 O                    8.0000    -0.07254596     1.54356797    -0.52273589
    3 O                    8.0000     1.34911174    -0.65953760    -0.26106562
    4 O                    8.0000    -0.04447960     0.14919821     1.72346066
    5 O                    8.0000    -1.27839989    -0.77528623    -0.42409005
    6 H                    1.0000     0.81211515    -0.28933075     1.86449488

      Atomic Mass 
      ----------- 

      P                 30.973760
      O                 15.994910
      H                  1.007825


 Effective nuclear repulsion energy (a.u.)     248.1763224493

            Nuclear Dipole moment (a.u.) 
            ----------------------------
        X                 Y               Z
 ---------------- ---------------- ----------------
     0.0883520032     5.1675106123     9.5487910517


            XYZ format geometry
            -------------------
     6
 geometry
 P                    -0.02632344     0.06402140    -0.06240298
 O                    -0.07254596     1.54356797    -0.52273589
 O                     1.34911174    -0.65953760    -0.26106562
 O                    -0.04447960     0.14919821     1.72346066
 O                    -1.27839989    -0.77528623    -0.42409005
 H                     0.81211515    -0.28933075     1.86449488

 ==============================================================================
                                internuclear distances
 ------------------------------------------------------------------------------
       center one      |      center two      | atomic units |  angstroms
 ------------------------------------------------------------------------------
    2 O                |   1 P                |     2.92944  |     1.55019
    3 O                |   1 P                |     2.96080  |     1.56679
    4 O                |   1 P                |     3.37880  |     1.78799
    5 O                |   1 P                |     2.92935  |     1.55015
    6 H                |   4 O                |     1.83795  |     0.97260
 ------------------------------------------------------------------------------
                         number of included internuclear distances:          5
 ==============================================================================



 ==============================================================================
                                 internuclear angles
 ------------------------------------------------------------------------------
        center 1       |       center 2       |       center 3       |  degrees
 ------------------------------------------------------------------------------
    2 O                |   1 P                |   3 O                |   115.42
    2 O                |   1 P                |   4 O                |   104.53
    2 O                |   1 P                |   5 O                |   115.05
    3 O                |   1 P                |   4 O                |    99.07
    3 O                |   1 P                |   5 O                |   115.43
    4 O                |   1 P                |   5 O                |   104.52
    1 P                |   4 O                |   6 H                |    96.57
 ------------------------------------------------------------------------------
                            number of included internuclear angles:          7
 ==============================================================================




                                 NWChem DFT Module
                                 -----------------


                      Basis "ao basis" -> "ao basis" (cartesian)
                      -----
  P (Phosphorous)
  ---------------
            Exponent  Coefficients 
       -------------- ---------------------------------------------------------
  1 S  3.12400000E+05  0.000058
  1 S  4.68000000E+04  0.000448
  1 S  1.06500000E+04  0.002349
  1 S  3.01800000E+03  0.009783
  1 S  9.86800000E+02  0.034147
  1 S  3.57400000E+02  0.100204
  1 S  1.39600000E+02  0.234372
  1 S  5.76300000E+01  0.382434
  1 S  2.46000000E+01  0.318088
  1 S  1.01200000E+01  0.070779
  1 S  4.28300000E+00 -0.001818
  1 S  1.80500000E+00  0.002162
  1 S  2.78200000E-01  0.000432

  2 S  3.12400000E+05 -0.000016
  2 S  4.68000000E+04 -0.000122
  2 S  1.06500000E+04 -0.000640
  2 S  3.01800000E+03 -0.002674
  2 S  9.86800000E+02 -0.009498
  2 S  3.57400000E+02 -0.028935
  2 S  1.39600000E+02 -0.074512
  2 S  5.76300000E+01 -0.149938
  2 S  2.46000000E+01 -0.189467
  2 S  1.01200000E+01  0.036327
  2 S  4.28300000E+00  0.528816
  2 S  1.80500000E+00  0.519115
  2 S  2.78200000E-01 -0.009257

  3 S  3.12400000E+05  0.000004
  3 S  4.68000000E+04  0.000033
  3 S  1.06500000E+04  0.000176
  3 S  3.01800000E+03  0.000734
  3 S  9.86800000E+02  0.002618
  3 S  3.57400000E+02  0.007979
  3 S  1.39600000E+02  0.020794
  3 S  5.76300000E+01  0.042445
  3 S  2.46000000E+01  0.056344
  3 S  1.01200000E+01 -0.012736
  3 S  4.28300000E+00 -0.196495
  3 S  1.80500000E+00 -0.353555
  3 S  2.78200000E-01  0.700912

  4 S  6.15800000E-01  1.000000

  5 S  1.05500000E-01  1.000000

  6 S  4.09000000E-02  1.000000

  7 P  5.04900000E+02  0.002337
  7 P  1.19400000E+02  0.018541
  7 P  3.79600000E+01  0.084969
  7 P  1.39500000E+01  0.244615
  7 P  5.45700000E+00  0.422766
  7 P  2.17700000E+00  0.368439
  7 P  2.87700000E-01 -0.003790

  8 P  5.04900000E+02 -0.000555
  8 P  1.19400000E+02 -0.004459
  8 P  3.79600000E+01 -0.020635
  8 P  1.39500000E+01 -0.061769
  8 P  5.45700000E+00 -0.108924
  8 P  2.17700000E+00 -0.105599
  8 P  2.87700000E-01  0.576981

  9 P  8.01000000E-01  1.000000

 10 P  9.71400000E-02  1.000000

 11 P  3.07000000E-02  1.000000

 12 D  2.16000000E-01  1.000000

 13 D  6.52000000E-01  1.000000

 14 D  7.75000000E-02  1.000000

 15 F  4.52000000E-01  1.000000

 16 F  1.65000000E-01  1.000000

  O (Oxygen)
  ----------
            Exponent  Coefficients 
       -------------- ---------------------------------------------------------
  1 S  1.53300000E+04  0.000508
  1 S  2.29900000E+03  0.003929
  1 S  5.22400000E+02  0.020243
  1 S  1.47300000E+02  0.079181
  1 S  4.75500000E+01  0.230687
  1 S  1.67600000E+01  0.433118
  1 S  6.20700000E+00  0.350260
  1 S  6.88200000E-01 -0.008154

  2 S  1.53300000E+04 -0.000115
  2 S  2.29900000E+03 -0.000895
  2 S  5.22400000E+02 -0.004636
  2 S  1.47300000E+02 -0.018724
  2 S  4.75500000E+01 -0.058463
  2 S  1.67600000E+01 -0.136463
  2 S  6.20700000E+00 -0.175740
  2 S  6.88200000E-01  0.603418

  3 S  1.75200000E+00  1.000000

  4 S  2.38400000E-01  1.000000

  5 S  7.37600000E-02  1.000000

  6 P  3.44600000E+01  0.015928
  6 P  7.74900000E+00  0.099740
  6 P  2.28000000E+00  0.310492

  7 P  7.15600000E-01  1.000000

  8 P  2.14000000E-01  1.000000

  9 P  5.97400000E-02  1.000000

 10 D  2.31400000E+00  1.000000

 11 D  6.45000000E-01  1.000000

 12 D  2.14000000E-01  1.000000

 13 F  1.42800000E+00  1.000000

 14 F  5.00000000E-01  1.000000

  H (Hydrogen)
  ------------
            Exponent  Coefficients 
       -------------- ---------------------------------------------------------
  1 S  3.38700000E+01  0.006068
  1 S  5.09500000E+00  0.045308
  1 S  1.15900000E+00  0.202822

  2 S  3.25800000E-01  1.000000

  3 S  1.02700000E-01  1.000000

  4 S  2.52600000E-02  1.000000

  5 P  1.40700000E+00  1.000000

  6 P  3.88000000E-01  1.000000

  7 P  1.02000000E-01  1.000000

  8 D  1.05700000E+00  1.000000

  9 D  2.47000000E-01  1.000000



 Summary of "ao basis" -> "ao basis" (cartesian)
 ------------------------------------------------------------------------------
       Tag                 Description            Shells   Functions and Types
 ---------------- ------------------------------  ------  ---------------------
 P                        aug-cc-pVTZ               16       59   6s5p3d2f
 O                        aug-cc-pVTZ               14       55   5s4p3d2f
 H                        aug-cc-pVTZ                9       25   4s3p2d




 Summary of "ao basis" -> "ao basis" (cartesian)
 ------------------------------------------------------------------------------
       Tag                 Description            Shells   Functions and Types
 ---------------- ------------------------------  ------  ---------------------
 P                        aug-cc-pVTZ               16       59   6s5p3d2f
 O                        aug-cc-pVTZ               14       55   5s4p3d2f
 H                        aug-cc-pVTZ                9       25   4s3p2d


  Caching 1-el integrals 

            General Information
            -------------------
          SCF calculation type: DFT
          Wavefunction type:  spin polarized.
          No. of atoms     :     6
          No. of electrons :    49
           Alpha electrons :    25
            Beta electrons :    24
          Charge           :    -1
          Spin multiplicity:     2
          Use of symmetry is: off; symmetry adaption is: off
          Maximum number of iterations: 500
          AO basis - number of functions:   304
                     number of shells:    81
          Convergence on energy requested:  1.00D-06
          Convergence on density requested:  1.00D-05
          Convergence on gradient requested:  5.00D-04

              XC Information
              --------------
          PerdewBurkeErnzerhof Exchange Functional  1.000          
            Perdew 1991 LDA Correlation Functional  1.000 local    
           PerdewBurkeErnz. Correlation Functional  1.000 non-local

             Grid Information
             ----------------
          Grid used for XC integration:  medium    
          Radial quadrature: Mura-Knowles        
          Angular quadrature: Lebedev. 
          Tag              B.-S. Rad. Rad. Pts. Rad. Cut. Ang. Pts.
          ---              ---------- --------- --------- ---------
          P                   1.00       88          13.0       590
          O                   0.60       49          13.0       434
          H                   0.35       45          13.0       434
          Grid pruning is: on 
          Number of quadrature shells:   329
          Spatial weights used:  Erf1

          Convergence Information
          -----------------------
          Convergence aids based upon iterative change in 
          total energy or number of iterations. 
          Levelshifting, if invoked, occurs when the 
          HOMO/LUMO gap drops below (HL_TOL):  1.00D-02
          DIIS, if invoked, will attempt to extrapolate 
          using up to (NFOCK): 10 stored Fock matrices.

                    Damping(40%)  Levelshifting(0.0)       DIIS
                  --------------- ------------------- ---------------
          dE  on:    start            0.00D+00            start   
          dE off:  500 iters          0.00D+00          500 iters 


      Screening Tolerance Information
      -------------------------------
          Density screening/tol_rho:  1.00D-10
          AO Gaussian exp screening on grid/accAOfunc:  14
          CD Gaussian exp screening on grid/accCDfunc:  20
          XC Gaussian exp screening on grid/accXCfunc:  20
          Schwarz screening/accCoul:  1.00D-08


 Forcing the number of linearly dependent vectors to be  0

      Superposition of Atomic Density Guess
      -------------------------------------

 Sum of atomic energies:        -640.28268388
   Time after variat. SCF:      0.4
   Time prior to 1st pass:      0.4

 Grid_pts file          = /jet/home/hmt47/nwchem_scratch//dft.gridpts.00
 Record size in doubles =  12289        No. of grid_pts per rec  =   3070
 Max. records in memory =      6        Max. recs in file   =  67550051

 Grid integrated density:      47.999999941759
 Requested integration accuracy:   0.10E-05

           Memory utilization after 1st SCF pass: 
           Heap Space remaining (MW):       33.47            33472698
          Stack Space remaining (MW):       67.11            67106284

   convergence    iter        energy       DeltaE   RMS-Dens  Diis-err    time
 ---------------- ----- ----------------- --------- --------- ---------  ------
 d=40,ls=0.0,diis     1   -643.1599812911 -8.91D+02  5.40D-03  1.09D+01     1.5
                                                     5.31D-03  1.01D+01
 Grid integrated density:      48.600000747066
 Requested integration accuracy:   0.10E-05
 d=40,ls=0.0,diis     2   -642.8381360804  3.22D-01  4.49D-03  1.88D+00     5.5
                                                     4.72D-03  1.74D+00
 Grid integrated density:      48.839999625694
 Requested integration accuracy:   0.10E-05
 d=40,ls=0.0,diis     3   -642.3999657683  4.38D-01  1.37D-03  8.65D-01     9.5
                                                     1.93D-03  7.89D-01
 Grid integrated density:      48.936000422149
 Requested integration accuracy:   0.10E-05
 d=40,ls=0.0,diis     4   -642.5720626091 -1.72D-01  5.97D-04  2.20D-01    13.7
                                                     1.01D-03  1.92D-01
 Grid integrated density:      48.974400674218
 Requested integration accuracy:   0.10E-05
 d=40,ls=0.0,diis     5   -642.6479499781 -7.59D-02  2.99D-04  3.63D-02    17.8
                                                     4.41D-04  3.12D-02
 Grid integrated density:      48.989760825054
 Requested integration accuracy:   0.10E-05
  Resetting Diis
 d=40,ls=0.0,diis     6   -642.6655567699 -1.76D-02  1.15D-04  8.54D-03    21.8
                                                     1.60D-04  7.76D-03
 Grid integrated density:      48.995905203306
 Requested integration accuracy:   0.10E-05
 d=40,ls=0.0,diis     7   -642.6722460406 -6.69D-03  1.78D-04  2.38D-03    25.8
                                                     2.91D-04  2.08D-03
 Grid integrated density:      48.998362858268
 Requested integration accuracy:   0.10E-05
 d=40,ls=0.0,diis     8   -642.6728196763 -5.74D-04  8.32D-05  4.00D-03    29.9
                                                     3.49D-04  4.19D-03
 Grid integrated density:      48.999345888362
 Requested integration accuracy:   0.10E-05
 d=40,ls=0.0,diis     9   -642.6744076441 -1.59D-03  4.85D-05  2.43D-03    33.9
                                                     1.29D-04  2.46D-03
 Grid integrated density:      48.999739101414
 Requested integration accuracy:   0.10E-05
 d=40,ls=0.0,diis    10   -642.6759206758 -1.51D-03  2.30D-05  3.28D-04    38.0
                                                     5.20D-05  3.36D-04
 Grid integrated density:      48.999896385286
 Requested integration accuracy:   0.10E-05
 d=40,ls=0.0,diis    11   -642.6763270441 -4.06D-04  1.02D-05  5.87D-05    42.0
                                                     2.59D-05  5.97D-05
 d=40,ls=0.0,diis    12   -642.6764710824 -1.44D-04  5.05D-06  1.04D-05    46.0
                                                     1.25D-05  1.05D-05
 d=40,ls=0.0,diis    13   -642.6765260930 -5.50D-05  1.92D-06  1.29D-06    50.1
                                                     6.68D-06  1.54D-06
 d=40,ls=0.0,diis    14   -642.6765473842 -2.13D-05  1.24D-06  2.08D-07    54.1
                                                     3.90D-06  1.67D-07
 d=40,ls=0.0,diis    15   -642.6765558234 -8.44D-06  8.44D-07  7.24D-08    58.2
                                                     2.24D-06  4.46D-08
 d=40,ls=0.0,diis    16   -642.6765592036 -3.38D-06  4.76D-07  2.87D-08    62.2
                                                     1.16D-06  2.00D-08
 d=40,ls=0.0,diis    17   -642.6765605642 -1.36D-06  2.04D-07  5.86D-09    66.7
                                                     5.50D-07  3.92D-09
 d=40,ls=0.0,diis    18   -642.6765611085 -5.44D-07  1.04D-07  1.53D-09    70.7
                                                     2.32D-07  1.05D-09


         Total DFT energy =     -642.676561108467
      One electron energy =    -1391.313016817213
           Coulomb energy =      558.203131333308
    Exchange-Corr. energy =      -57.742998073837
 Nuclear repulsion energy =      248.176322449276

 Numeric. integr. density =       49.000001070584

     Total iterative time =     70.3s



                    DFT Final Alpha Molecular Orbital Analysis
                    ------------------------------------------

 Vector    1  Occ=1.000000D+00  E=-7.623118D+01
              MO Center= -2.6D-02,  6.4D-02, -6.2D-02, r^2= 4.1D-03
   Bfn.  Coefficient  Atom+Function         Bfn.  Coefficient  Atom+Function  
  ----- ------------  ---------------      ----- ------------  ---------------
     1      1.004982  1 P  s                  3      0.044779  1 P  s          
     2      0.033267  1 P  s          

 Vector    2  Occ=1.000000D+00  E=-1.857984D+01
              MO Center= -2.9D-01,  1.1D+00, -5.1D-01, r^2= 1.0D+00
   Bfn.  Coefficient  Atom+Function         Bfn.  Coefficient  Atom+Function  
  ----- ------------  ---------------      ----- ------------  ---------------
    60      0.886840  2 O  s                225      0.414413  5 O  s          
    62      0.058396  2 O  s                 64     -0.046368  2 O  s          
    63     -0.042414  2 O  s                119     -0.035148  3 O  s          
   229     -0.031974  5 O  s                227      0.028157  5 O  s          
    34      0.027247  1 P  dxx               16      0.025460  1 P  px         

 Vector    3  Occ=1.000000D+00  E=-1.857981D+01
              MO Center= -1.1D+00, -3.6D-01, -4.4D-01, r^2= 1.0D+00
   Bfn.  Coefficient  Atom+Function         Bfn.  Coefficient  Atom+Function  
  ----- ------------  ---------------      ----- ------------  ---------------
   225      0.886073  5 O  s                 60     -0.412768  2 O  s          
   227      0.057310  5 O  s                228     -0.046686  5 O  s          
   229     -0.034039  5 O  s                 62     -0.025827  2 O  s          
    63      0.025353  2 O  s          

 Vector    4  Occ=1.000000D+00  E=-1.857866D+01
              MO Center=  1.3D+00, -6.6D-01, -2.6D-01, r^2= 1.5D-02
   Bfn.  Coefficient  Atom+Function         Bfn.  Coefficient  Atom+Function  
  ----- ------------  ---------------      ----- ------------  ---------------
   115      0.979313  3 O  s                117      0.065317  3 O  s          
    16     -0.043721  1 P  px                 5     -0.041716  1 P  s          
   119     -0.041215  3 O  s                 64     -0.040241  2 O  s          
   229     -0.040241  5 O  s                118     -0.039874  3 O  s          
   282      0.034803  6 H  s                 37      0.033736  1 P  dyy        

 Vector    5  Occ=1.000000D+00  E=-1.857649D+01
              MO Center= -4.4D-02,  1.5D-01,  1.7D+00, r^2= 1.5D-02
   Bfn.  Coefficient  Atom+Function         Bfn.  Coefficient  Atom+Function  
  ----- ------------  ---------------      ----- ------------  ---------------
   170      0.981367  4 O  s                  5     -0.074196  1 P  s          
   172      0.063902  4 O  s                174     -0.038376  4 O  s          
    63      0.034509  2 O  s                183     -0.034476  4 O  pz         
   228      0.034521  5 O  s                118      0.034201  3 O  s          
    18      0.032544  1 P  pz                51      0.031473  1 P  fxxy       

 Vector    6  Occ=1.000000D+00  E=-6.214598D+00
              MO Center= -2.6D-02,  6.4D-02, -6.2D-02, r^2= 9.1D-02
   Bfn.  Coefficient  Atom+Function         Bfn.  Coefficient  Atom+Function  
  ----- ------------  ---------------      ----- ------------  ---------------
     2      0.899750  1 P  s                  4      0.103902  1 P  s          
     3     -0.056233  1 P  s          

 Vector    7  Occ=1.000000D+00  E=-4.433148D+00
              MO Center= -2.6D-02,  6.4D-02, -6.3D-02, r^2= 8.3D-02
   Bfn.  Coefficient  Atom+Function         Bfn.  Coefficient  Atom+Function  
  ----- ------------  ---------------      ----- ------------  ---------------
     9      1.044439  1 P  pz                12      0.229033  1 P  pz         
     7     -0.129672  1 P  px                 8      0.111933  1 P  py         
    42     -0.101751  1 P  fxxz              47     -0.101603  1 P  fyyz       
    49     -0.100536  1 P  fzzz             183      0.037019  4 O  pz         
     5      0.028905  1 P  s                 10     -0.028265  1 P  px         

 Vector    8  Occ=1.000000D+00  E=-4.430395D+00
              MO Center= -2.6D-02,  6.4D-02, -6.2D-02, r^2= 8.3D-02
   Bfn.  Coefficient  Atom+Function         Bfn.  Coefficient  Atom+Function  
  ----- ------------  ---------------      ----- ------------  ---------------
     7      0.940833  1 P  px                 8     -0.483225  1 P  py         
    10      0.229882  1 P  px                 9      0.168932  1 P  pz         
    11     -0.118045  1 P  py                45     -0.095378  1 P  fxzz       
    40     -0.092741  1 P  fxxx              43     -0.092633  1 P  fxyy       
    48      0.048826  1 P  fyzz              41      0.047633  1 P  fxxy       

 Vector    9  Occ=1.000000D+00  E=-4.430118D+00
              MO Center= -2.6D-02,  6.4D-02, -6.2D-02, r^2= 8.3D-02
   Bfn.  Coefficient  Atom+Function         Bfn.  Coefficient  Atom+Function  
  ----- ------------  ---------------      ----- ------------  ---------------
     8      0.949263  1 P  py                 7      0.494796  1 P  px         
    11      0.232272  1 P  py                10      0.121075  1 P  px         
    48     -0.096138  1 P  fyzz              41     -0.094211  1 P  fxxy       
    46     -0.094332  1 P  fyyy              45     -0.050270  1 P  fxzz       
    40     -0.049152  1 P  fxxx              43     -0.049003  1 P  fxyy       

 Vector   10  Occ=1.000000D+00  E=-7.769006D-01
              MO Center=  3.7D-02,  4.0D-02,  1.5D-01, r^2= 2.2D+00
   Bfn.  Coefficient  Atom+Function         Bfn.  Coefficient  Atom+Function  
  ----- ------------  ---------------      ----- ------------  ---------------
     3      0.273798  1 P  s                171      0.213711  4 O  s          
   116      0.211441  3 O  s                 61      0.205978  2 O  s          
   226      0.205981  5 O  s                118      0.135086  3 O  s          
   173      0.133076  4 O  s                 63      0.126742  2 O  s          
   228      0.126733  5 O  s                172      0.064303  4 O  s          

 Vector   11  Occ=1.000000D+00  E=-7.131857D-01
              MO Center= -9.6D-02,  1.4D-01,  9.7D-01, r^2= 2.0D+00
   Bfn.  Coefficient  Atom+Function         Bfn.  Coefficient  Atom+Function  
  ----- ------------  ---------------      ----- ------------  ---------------
   171      0.391836  4 O  s                173      0.222442  4 O  s          
    61     -0.193659  2 O  s                226     -0.193588  5 O  s          
    63     -0.128464  2 O  s                228     -0.128415  5 O  s          
   172      0.110627  4 O  s                280      0.090008  6 H  s          
    18     -0.088045  1 P  pz                12      0.085807  1 P  pz         

 Vector   12  Occ=1.000000D+00  E=-6.957935D-01
              MO Center= -5.7D-01,  3.3D-01, -4.1D-01, r^2= 1.8D+00
   Bfn.  Coefficient  Atom+Function         Bfn.  Coefficient  Atom+Function  
  ----- ------------  ---------------      ----- ------------  ---------------
    61      0.351461  2 O  s                226     -0.351760  5 O  s          
    63      0.214643  2 O  s                228     -0.214815  5 O  s          
    11      0.142053  1 P  py                17     -0.140092  1 P  py         
    62      0.098992  2 O  s                227     -0.099076  5 O  s          
    64      0.090902  2 O  s                229     -0.090979  5 O  s          

 Vector   13  Occ=1.000000D+00  E=-6.928071D-01
              MO Center=  7.5D-01, -3.4D-01, -1.2D-01, r^2= 1.7D+00
   Bfn.  Coefficient  Atom+Function         Bfn.  Coefficient  Atom+Function  
  ----- ------------  ---------------      ----- ------------  ---------------
   116      0.427497  3 O  s                118      0.266410  3 O  s          
    61     -0.151284  2 O  s                226     -0.150644  5 O  s          
   171     -0.140179  4 O  s                 16     -0.139277  1 P  px         
    10      0.133183  1 P  px               117      0.120659  3 O  s          
   119      0.114527  3 O  s                 63     -0.096582  2 O  s          

 Vector   14  Occ=1.000000D+00  E=-3.114381D-01
              MO Center= -2.8D-02,  8.5D-02,  4.1D-01, r^2= 2.9D+00
   Bfn.  Coefficient  Atom+Function         Bfn.  Coefficient  Atom+Function  
  ----- ------------  ---------------      ----- ------------  ---------------
     3      0.373437  1 P  s                  5      0.241589  1 P  s          
    61     -0.154558  2 O  s                226     -0.154588  5 O  s          
    63     -0.152341  2 O  s                228     -0.152361  5 O  s          
   177     -0.143766  4 O  pz               180     -0.142455  4 O  pz         
   118     -0.134561  3 O  s                 64     -0.131131  2 O  s          

 Vector   15  Occ=1.000000D+00  E=-2.452967D-01
              MO Center=  2.0D-01, -1.9D-02,  7.2D-01, r^2= 2.7D+00
   Bfn.  Coefficient  Atom+Function         Bfn.  Coefficient  Atom+Function  
  ----- ------------  ---------------      ----- ------------  ---------------
   175      0.190744  4 O  px               174     -0.186656  4 O  s          
   178      0.178349  4 O  px                 3      0.172016  1 P  s          
   281      0.157488  6 H  s                282      0.147882  6 H  s          
    12     -0.141499  1 P  pz               116     -0.133911  3 O  s          
   118     -0.130238  3 O  s                120     -0.121088  3 O  px         

 Vector   16  Occ=1.000000D+00  E=-2.065525D-01
              MO Center= -3.8D-02,  7.6D-02,  6.6D-02, r^2= 3.1D+00
   Bfn.  Coefficient  Atom+Function         Bfn.  Coefficient  Atom+Function  
  ----- ------------  ---------------      ----- ------------  ---------------
    12      0.167172  1 P  pz                10      0.146068  1 P  px         
   234     -0.145130  5 O  py               231     -0.144021  5 O  py         
    66      0.137502  2 O  py                69      0.136787  2 O  py         
   180     -0.131573  4 O  pz               177     -0.130453  4 O  pz         
    63      0.114190  2 O  s                228      0.114105  5 O  s          

 Vector   17  Occ=1.000000D+00  E=-2.030374D-01
              MO Center= -2.9D-01,  1.9D-01, -3.1D-01, r^2= 2.8D+00
   Bfn.  Coefficient  Atom+Function         Bfn.  Coefficient  Atom+Function  
  ----- ------------  ---------------      ----- ------------  ---------------
    11      0.196690  1 P  py               230     -0.179658  5 O  px         
   233     -0.178485  5 O  px                63     -0.167137  2 O  s          
   228      0.167212  5 O  s                 66     -0.165127  2 O  py         
    69     -0.162710  2 O  py               124      0.122607  3 O  py         
   121      0.120142  3 O  py                61     -0.117814  2 O  s          

 Vector   18  Occ=1.000000D+00  E=-1.846164D-01
              MO Center=  2.8D-01, -7.3D-02,  4.6D-01, r^2= 3.0D+00
   Bfn.  Coefficient  Atom+Function         Bfn.  Coefficient  Atom+Function  
  ----- ------------  ---------------      ----- ------------  ---------------
   173      0.229215  4 O  s                120     -0.146970  3 O  px         
   123     -0.146271  3 O  px               171      0.143451  4 O  s          
   175     -0.141784  4 O  px               178     -0.130332  4 O  px         
    10      0.125969  1 P  px               281     -0.122244  6 H  s          
   118     -0.121614  3 O  s                174      0.121872  4 O  s          

 Vector   19  Occ=1.000000D+00  E=-1.305490D-01
              MO Center= -2.1D-01,  2.4D-01, -4.3D-01, r^2= 2.9D+00
   Bfn.  Coefficient  Atom+Function         Bfn.  Coefficient  Atom+Function  
  ----- ------------  ---------------      ----- ------------  ---------------
    68      0.231150  2 O  px                65      0.227548  2 O  px         
    16      0.222984  1 P  px               230      0.180595  5 O  px         
   233      0.175427  5 O  px                29      0.164058  1 P  dxy        
   120      0.163850  3 O  px                71      0.155404  2 O  px         
   123      0.155743  3 O  px                23      0.134765  1 P  dxy        

 Vector   20  Occ=1.000000D+00  E=-1.305229D-01
              MO Center=  1.9D-01, -1.6D-01, -3.8D-01, r^2= 2.9D+00
   Bfn.  Coefficient  Atom+Function         Bfn.  Coefficient  Atom+Function  
  ----- ------------  ---------------      ----- ------------  ---------------
   124      0.230493  3 O  py               121      0.227665  3 O  py         
   231      0.200035  5 O  py               234      0.197268  5 O  py         
    17      0.165594  1 P  py               127      0.147849  3 O  py         
    66      0.137411  2 O  py                69      0.126576  2 O  py         
   237      0.120718  5 O  py                11     -0.100477  1 P  py         

 Vector   21  Occ=1.000000D+00  E=-1.137228D-01
              MO Center= -3.5D-01,  2.6D-01,  5.8D-01, r^2= 2.8D+00
   Bfn.  Coefficient  Atom+Function         Bfn.  Coefficient  Atom+Function  
  ----- ------------  ---------------      ----- ------------  ---------------
   176      0.215261  4 O  py               179      0.215453  4 O  py         
   235     -0.149243  5 O  pz               182      0.148344  4 O  py         
   232     -0.146778  5 O  pz                70      0.142468  2 O  pz         
    67      0.139506  2 O  pz                26      0.128140  1 P  dyz        
    66      0.126367  2 O  py                32      0.123898  1 P  dyz        

 Vector   22  Occ=1.000000D+00  E=-1.014664D-01
              MO Center= -3.0D-01,  2.2D-01,  1.5D-01, r^2= 3.2D+00
   Bfn.  Coefficient  Atom+Function         Bfn.  Coefficient  Atom+Function  
  ----- ------------  ---------------      ----- ------------  ---------------
   177      0.206336  4 O  pz               180      0.204793  4 O  pz         
    67      0.202573  2 O  pz               232      0.202350  5 O  pz         
    70      0.200893  2 O  pz               235      0.201249  5 O  pz         
    73      0.139693  2 O  pz               238      0.137547  5 O  pz         
    27     -0.122838  1 P  dzz               18      0.100898  1 P  pz         

 Vector   23  Occ=1.000000D+00  E=-8.561990D-02
              MO Center=  8.1D-03,  3.2D-02, -3.9D-01, r^2= 2.9D+00
   Bfn.  Coefficient  Atom+Function         Bfn.  Coefficient  Atom+Function  
  ----- ------------  ---------------      ----- ------------  ---------------
    68      0.235276  2 O  px                65      0.231191  2 O  px         
   124     -0.210432  3 O  py               121     -0.206940  3 O  py         
   234      0.199657  5 O  py               231      0.195996  5 O  py         
    71      0.178003  2 O  px               127     -0.160018  3 O  py         
   237      0.150297  5 O  py               233     -0.123574  5 O  px         

 Vector   24  Occ=1.000000D+00  E=-8.203219D-02
              MO Center=  8.3D-01, -3.8D-01,  2.3D-02, r^2= 2.3D+00
   Bfn.  Coefficient  Atom+Function         Bfn.  Coefficient  Atom+Function  
  ----- ------------  ---------------      ----- ------------  ---------------
   125      0.325439  3 O  pz               122      0.322903  3 O  pz         
   128      0.246313  3 O  pz               180      0.102352  4 O  pz         
   177      0.100288  4 O  pz               175     -0.098232  4 O  px         
   178     -0.095662  4 O  px               131      0.091581  3 O  pz         
   173      0.089364  4 O  s                 30      0.082545  1 P  dxz        

 Vector   25  Occ=1.000000D+00  E=-6.390347D-02
              MO Center= -3.0D-01,  2.3D-01,  5.7D-01, r^2= 2.9D+00
   Bfn.  Coefficient  Atom+Function         Bfn.  Coefficient  Atom+Function  
  ----- ------------  ---------------      ----- ------------  ---------------
   176      0.239394  4 O  py               179      0.240513  4 O  py         
   235      0.197284  5 O  pz               232      0.194760  5 O  pz         
    70     -0.193690  2 O  pz                67     -0.191211  2 O  pz         
   182      0.181701  4 O  py               238      0.158805  5 O  pz         
    73     -0.155977  2 O  pz               175      0.124187  4 O  px         

 Vector   26  Occ=0.000000D+00  E= 1.042312D-01
              MO Center=  1.4D+00, -5.5D-01,  2.4D+00, r^2= 1.4D+01
   Bfn.  Coefficient  Atom+Function         Bfn.  Coefficient  Atom+Function  
  ----- ------------  ---------------      ----- ------------  ---------------
     6      4.025858  1 P  s                283     -2.742199  6 H  s          
    18      1.585755  1 P  pz               282     -1.359962  6 H  s          
    21      1.068075  1 P  pz                37     -0.923213  1 P  dyy        
    34     -0.916843  1 P  dxx               64      0.621105  2 O  s          
   229      0.620628  5 O  s                186      0.563906  4 O  pz         

 Vector   27  Occ=0.000000D+00  E= 1.423505D-01
              MO Center= -4.3D-01,  2.2D-01, -1.2D+00, r^2= 1.6D+01
   Bfn.  Coefficient  Atom+Function         Bfn.  Coefficient  Atom+Function  
  ----- ------------  ---------------      ----- ------------  ---------------
     6      4.129110  1 P  s                  5      3.259125  1 P  s          
    18     -2.689044  1 P  pz                64     -2.273653  2 O  s          
   229     -2.273099  5 O  s                174      2.038874  4 O  s          
    21     -1.492350  1 P  pz                16     -1.160282  1 P  px         
    39     -1.062627  1 P  dzz              119     -0.770905  3 O  s          

 Vector   28  Occ=0.000000D+00  E= 1.490983D-01
              MO Center=  8.8D-02,  9.7D-03,  5.8D-02, r^2= 2.0D+01
   Bfn.  Coefficient  Atom+Function         Bfn.  Coefficient  Atom+Function  
  ----- ------------  ---------------      ----- ------------  ---------------
    16      3.751928  1 P  px               119     -3.670219  3 O  s          
    19      2.068796  1 P  px                17     -1.982971  1 P  py         
    64      1.454449  2 O  s                229      1.456002  5 O  s          
   174      1.407544  4 O  s                 20     -1.105561  1 P  py         
    55     -0.956631  1 P  fxzz              53     -0.876093  1 P  fxyy       

 Vector   29  Occ=0.000000D+00  E= 1.496095D-01
              MO Center= -6.3D-02,  7.7D-02, -2.1D-01, r^2= 2.0D+01
   Bfn.  Coefficient  Atom+Function         Bfn.  Coefficient  Atom+Function  
  ----- ------------  ---------------      ----- ------------  ---------------
    64     -2.846909  2 O  s                229      2.846040  5 O  s          
    17      2.690463  1 P  py                20      2.225807  1 P  py         
    16      1.397862  1 P  px                19      1.156587  1 P  px         
    58     -0.684468  1 P  fyzz              51     -0.568561  1 P  fxxy       
    56     -0.538108  1 P  fyyy             185     -0.422960  4 O  py         

 Vector   30  Occ=0.000000D+00  E= 1.730428D-01
              MO Center=  5.6D-01, -2.0D-01,  9.0D-01, r^2= 2.1D+01
   Bfn.  Coefficient  Atom+Function         Bfn.  Coefficient  Atom+Function  
  ----- ------------  ---------------      ----- ------------  ---------------
     6     12.436084  1 P  s                283     -4.113487  6 H  s          
   174     -3.811659  4 O  s                 21      3.527064  1 P  pz         
     5      3.119403  1 P  s                 18      2.559826  1 P  pz         
   119     -2.258489  3 O  s                 37     -1.764121  1 P  dyy        
    34     -1.589271  1 P  dxx               19      1.320578  1 P  px         

 Vector   31  Occ=0.000000D+00  E= 2.043126D-01
              MO Center=  6.2D-01, -2.1D-01,  1.3D+00, r^2= 1.4D+01
   Bfn.  Coefficient  Atom+Function         Bfn.  Coefficient  Atom+Function  
  ----- ------------  ---------------      ----- ------------  ---------------
     5      6.421037  1 P  s                282      5.111844  6 H  s          
   174     -3.879049  4 O  s                 18     -3.206198  1 P  pz         
   119     -2.897249  3 O  s                 64     -2.582676  2 O  s          
   229     -2.576551  5 O  s                184     -1.813211  4 O  px         
    34      1.449907  1 P  dxx               37      1.442590  1 P  dyy        

 Vector   32  Occ=0.000000D+00  E= 2.087831D-01
              MO Center=  2.3D-02,  9.0D-02,  1.2D+00, r^2= 1.6D+01
   Bfn.  Coefficient  Atom+Function         Bfn.  Coefficient  Atom+Function  
  ----- ------------  ---------------      ----- ------------  ---------------
    18      9.011972  1 P  pz               174     -7.697453  4 O  s          
   282      3.616894  6 H  s                186      3.364363  4 O  pz         
    64      3.272114  2 O  s                229      3.283353  5 O  s          
    57     -2.783610  1 P  fyyz             119      2.692029  3 O  s          
     6      2.648286  1 P  s                 52     -2.603207  1 P  fxxz       

 Vector   33  Occ=0.000000D+00  E= 2.149822D-01
              MO Center= -3.1D-01,  2.1D-01, -4.2D-01, r^2= 1.6D+01
   Bfn.  Coefficient  Atom+Function         Bfn.  Coefficient  Atom+Function  
  ----- ------------  ---------------      ----- ------------  ---------------
    17     12.127235  1 P  py                64     -6.454268  2 O  s          
   229      6.342882  5 O  s                 16      6.009580  1 P  px         
    58     -3.577343  1 P  fyzz              51     -3.357856  1 P  fxxy       
    56     -3.373404  1 P  fyyy              75      2.883543  2 O  py         
   239      2.506804  5 O  px                53     -1.768231  1 P  fxyy       

 Vector   34  Occ=0.000000D+00  E= 2.150134D-01
              MO Center=  4.0D-01, -1.8D-01, -3.1D-01, r^2= 1.6D+01
   Bfn.  Coefficient  Atom+Function         Bfn.  Coefficient  Atom+Function  
  ----- ------------  ---------------      ----- ------------  ---------------
    16      9.464420  1 P  px               119     -6.744038  3 O  s          
    17     -4.522952  1 P  py               129      3.064953  3 O  px         
    55     -2.983865  1 P  fxzz              50     -2.770252  1 P  fxxx       
    53     -2.737859  1 P  fxyy             229      2.303159  5 O  s          
    64      1.982027  2 O  s                130     -1.618771  3 O  py         

 Vector   35  Occ=0.000000D+00  E= 2.276172D-01
              MO Center= -2.4D-01,  2.1D-01,  7.2D-01, r^2= 1.4D+01
   Bfn.  Coefficient  Atom+Function         Bfn.  Coefficient  Atom+Function  
  ----- ------------  ---------------      ----- ------------  ---------------
    17      3.670556  1 P  py                64     -2.031378  2 O  s          
   229      2.024719  5 O  s                 16      1.906362  1 P  px         
    35     -1.908349  1 P  dxy               38      1.694131  1 P  dyz        
    37      1.466456  1 P  dyy               34     -1.385343  1 P  dxx        
   185     -1.344930  4 O  py                76     -1.208407  2 O  pz         

 Vector   36  Occ=0.000000D+00  E= 2.390302D-01
              MO Center= -1.6D-01,  1.3D-01, -2.9D-02, r^2= 1.5D+01
   Bfn.  Coefficient  Atom+Function         Bfn.  Coefficient  Atom+Function  
  ----- ------------  ---------------      ----- ------------  ---------------
     5     22.422253  1 P  s                  6     -9.126639  1 P  s          
    64     -8.631915  2 O  s                229     -8.636751  5 O  s          
    37      8.133705  1 P  dyy               34      7.896131  1 P  dxx        
   119     -7.845898  3 O  s                 39      6.420301  1 P  dzz        
    75      3.117197  2 O  py               129      2.700801  3 O  px         

 Vector   37  Occ=0.000000D+00  E= 2.465020D-01
              MO Center=  5.1D-02,  4.0D-03, -5.2D-01, r^2= 6.9D+00
   Bfn.  Coefficient  Atom+Function         Bfn.  Coefficient  Atom+Function  
  ----- ------------  ---------------      ----- ------------  ---------------
     6      9.531042  1 P  s                 39     -4.800375  1 P  dzz        
    37     -3.701654  1 P  dyy               34     -3.590329  1 P  dxx        
     5     -3.335532  1 P  s                174      3.342929  4 O  s          
    18     -1.763342  1 P  pz                64      1.272327  2 O  s          
   229      1.274572  5 O  s                118     -1.041558  3 O  s          

 Vector   38  Occ=0.000000D+00  E= 2.700473D-01
              MO Center=  3.6D-02,  6.3D-02,  6.5D-01, r^2= 8.9D+00
   Bfn.  Coefficient  Atom+Function         Bfn.  Coefficient  Atom+Function  
  ----- ------------  ---------------      ----- ------------  ---------------
     5     14.472659  1 P  s                 64     -4.894403  2 O  s          
   229     -4.890964  5 O  s                 39      3.853005  1 P  dzz        
   119     -3.436461  3 O  s                 34      3.199637  1 P  dxx        
    37      3.156195  1 P  dyy              174     -2.714176  4 O  s          
   186      2.406924  4 O  pz                 6     -1.780942  1 P  s          

 Vector   39  Occ=0.000000D+00  E= 2.785371D-01
              MO Center= -2.3D-01,  2.1D-01,  8.9D-01, r^2= 1.0D+01
   Bfn.  Coefficient  Atom+Function         Bfn.  Coefficient  Atom+Function  
  ----- ------------  ---------------      ----- ------------  ---------------
   282      7.336936  6 H  s                  6     -5.116267  1 P  s          
   174     -4.792251  4 O  s                184     -3.256894  4 O  px         
     5      3.064616  1 P  s                185      1.681651  4 O  py         
    34      1.576516  1 P  dxx               39      1.517348  1 P  dzz        
    37      1.364375  1 P  dyy               18     -1.263409  1 P  pz         

 Vector   40  Occ=0.000000D+00  E= 2.864711D-01
              MO Center=  5.2D-01, -2.2D-01,  4.1D-02, r^2= 1.4D+01
   Bfn.  Coefficient  Atom+Function         Bfn.  Coefficient  Atom+Function  
  ----- ------------  ---------------      ----- ------------  ---------------
   174      8.289171  4 O  s                 16      5.933240  1 P  px         
     6     -5.852149  1 P  s                282     -4.451993  6 H  s          
   119     -3.452529  3 O  s                 17     -3.221907  1 P  py         
    18     -3.164425  1 P  pz                 5     -3.088585  1 P  s          
    35     -2.972818  1 P  dxy               64      2.616374  2 O  s          

 Vector   41  Occ=0.000000D+00  E= 2.931488D-01
              MO Center= -4.5D-01,  3.0D-01,  2.0D-01, r^2= 1.4D+01
   Bfn.  Coefficient  Atom+Function         Bfn.  Coefficient  Atom+Function  
  ----- ------------  ---------------      ----- ------------  ---------------
    17      3.245494  1 P  py                64     -2.645801  2 O  s          
   229      2.657693  5 O  s                185     -1.781115  4 O  py         
    16      1.700738  1 P  px               241     -1.537824  5 O  pz         
    76      1.509150  2 O  pz                38     -1.364365  1 P  dyz        
    20      1.240992  1 P  py                35     -0.936584  1 P  dxy        

 Vector   42  Occ=0.000000D+00  E= 2.982169D-01
              MO Center=  3.6D-01, -1.4D-01, -1.6D-01, r^2= 1.4D+01
   Bfn.  Coefficient  Atom+Function         Bfn.  Coefficient  Atom+Function  
  ----- ------------  ---------------      ----- ------------  ---------------
   130     -2.101333  3 O  py                20      1.955400  1 P  py         
    75     -1.226382  2 O  py               239     -1.214199  5 O  px         
   129     -1.092757  3 O  px                19      1.019094  1 P  px         
    53     -0.781433  1 P  fxyy              17      0.704987  1 P  py         
   241      0.697655  5 O  pz                76     -0.633748  2 O  pz         

 Vector   43  Occ=0.000000D+00  E= 3.008490D-01
              MO Center= -2.9D-01,  1.9D-01, -3.2D-01, r^2= 1.3D+01
   Bfn.  Coefficient  Atom+Function         Bfn.  Coefficient  Atom+Function  
  ----- ------------  ---------------      ----- ------------  ---------------
    17      2.315077  1 P  py                64     -1.966276  2 O  s          
   229      1.969817  5 O  s                 74     -1.805822  2 O  px         
   240     -1.740376  5 O  py                20      1.573596  1 P  py         
    16      1.211460  1 P  px                19      0.817661  1 P  px         
    58     -0.730620  1 P  fyzz              53      0.717344  1 P  fxyy       

 Vector   44  Occ=0.000000D+00  E= 3.040370D-01
              MO Center= -7.2D-01,  4.2D-01, -2.5D-01, r^2= 1.4D+01
   Bfn.  Coefficient  Atom+Function         Bfn.  Coefficient  Atom+Function  
  ----- ------------  ---------------      ----- ------------  ---------------
     5      4.749472  1 P  s                  6      4.417978  1 P  s          
    18      4.172117  1 P  pz               174     -4.031109  4 O  s          
    19      3.354837  1 P  px               119     -2.821123  3 O  s          
    21      2.170678  1 P  pz               239     -2.168975  5 O  px         
    74     -2.128462  2 O  px               283     -2.000654  6 H  s          

 Vector   45  Occ=0.000000D+00  E= 3.126421D-01
              MO Center=  9.0D-02, -2.0D-02, -6.4D-01, r^2= 1.5D+01
   Bfn.  Coefficient  Atom+Function         Bfn.  Coefficient  Atom+Function  
  ----- ------------  ---------------      ----- ------------  ---------------
    18      6.175457  1 P  pz               119     -4.674455  3 O  s          
    21      3.113411  1 P  pz                35     -2.655372  1 P  dxy        
    34      2.621610  1 P  dxx               16      2.425909  1 P  px         
   131     -2.165143  3 O  pz               129      2.014673  3 O  px         
    19     -1.976805  1 P  px                 5      1.905790  1 P  s          

 Vector   46  Occ=0.000000D+00  E= 3.225351D-01
              MO Center=  2.6D-01, -7.2D-02,  2.5D-01, r^2= 1.1D+01
   Bfn.  Coefficient  Atom+Function         Bfn.  Coefficient  Atom+Function  
  ----- ------------  ---------------      ----- ------------  ---------------
   229     -6.012559  5 O  s                 64      5.974814  2 O  s          
    17     -3.730496  1 P  py                75     -3.170615  2 O  py         
    20      3.125612  1 P  py               240     -2.938707  5 O  py         
    35      2.693550  1 P  dxy              130     -2.463219  3 O  py         
    38      2.392794  1 P  dyz              185     -2.202690  4 O  py         

 Vector   47  Occ=0.000000D+00  E= 3.259990D-01
              MO Center=  2.8D-01, -8.0D-02,  2.5D-01, r^2= 1.4D+01
   Bfn.  Coefficient  Atom+Function         Bfn.  Coefficient  Atom+Function  
  ----- ------------  ---------------      ----- ------------  ---------------
    16     10.422780  1 P  px               119     -9.753647  3 O  s          
   282     -8.057465  6 H  s                 64      7.635561  2 O  s          
   229      7.592561  5 O  s                 35     -5.415997  1 P  dxy        
    17     -5.372372  1 P  py                 6      5.277705  1 P  s          
    37     -4.641924  1 P  dyy              174      4.465335  4 O  s          

 Vector   48  Occ=0.000000D+00  E= 3.483039D-01
              MO Center=  4.0D-02,  4.9D-02,  4.3D-01, r^2= 1.1D+01
   Bfn.  Coefficient  Atom+Function         Bfn.  Coefficient  Atom+Function  
  ----- ------------  ---------------      ----- ------------  ---------------
    64      5.363990  2 O  s                229     -5.387559  5 O  s          
    17     -4.537140  1 P  py                16     -2.399322  1 P  px         
    75     -2.221389  2 O  py               240     -1.679513  5 O  py         
   239     -1.586752  5 O  px               291     -1.489515  6 H  py         
    51      1.213008  1 P  fxxy              58      1.136394  1 P  fyzz       

 Vector   49  Occ=0.000000D+00  E= 3.574112D-01
              MO Center= -1.2D-01,  1.0D-01, -3.3D-01, r^2= 1.1D+01
   Bfn.  Coefficient  Atom+Function         Bfn.  Coefficient  Atom+Function  
  ----- ------------  ---------------      ----- ------------  ---------------
    16      7.509366  1 P  px               282     -5.769185  6 H  s          
   174      5.647395  4 O  s                119     -5.124631  3 O  s          
    17     -3.828189  1 P  py                64      2.676793  2 O  s          
   229      2.672908  5 O  s                186     -2.634532  4 O  pz         
    36      2.385562  1 P  dxz               39      2.351069  1 P  dzz        

 Vector   50  Occ=0.000000D+00  E= 3.661429D-01
              MO Center=  2.7D-01, -5.1D-02,  8.0D-01, r^2= 1.2D+01
   Bfn.  Coefficient  Atom+Function         Bfn.  Coefficient  Atom+Function  
  ----- ------------  ---------------      ----- ------------  ---------------
     6     20.177492  1 P  s                 34     -9.606593  1 P  dxx        
   119      8.888281  3 O  s                 37     -8.399037  1 P  dyy        
    39     -6.990581  1 P  dzz               16     -5.363116  1 P  px         
     5     -4.353072  1 P  s                174     -4.281765  4 O  s          
   282      3.286096  6 H  s                129     -2.988161  3 O  px         

 Vector   51  Occ=0.000000D+00  E= 3.883097D-01
              MO Center=  2.3D-01, -8.7D-02, -4.6D-01, r^2= 1.1D+01
   Bfn.  Coefficient  Atom+Function         Bfn.  Coefficient  Atom+Function  
  ----- ------------  ---------------      ----- ------------  ---------------
   174     12.648974  4 O  s                 39     -7.024381  1 P  dzz        
   119     -4.448858  3 O  s                  6      4.190485  1 P  s          
   186     -3.958116  4 O  pz                18     -3.381784  1 P  pz         
    16      2.709887  1 P  px               131     -2.474710  3 O  pz         
    37     -2.100401  1 P  dyy               63     -2.064089  2 O  s          

 Vector   52  Occ=0.000000D+00  E= 3.974054D-01
              MO Center= -8.1D-02,  1.2D-01,  6.4D-01, r^2= 1.0D+01
   Bfn.  Coefficient  Atom+Function         Bfn.  Coefficient  Atom+Function  
  ----- ------------  ---------------      ----- ------------  ---------------
    16     14.721100  1 P  px               119    -10.265825  3 O  s          
    64      8.529483  2 O  s                229      8.522119  5 O  s          
    17     -7.416169  1 P  py                35     -6.499713  1 P  dxy        
    18      5.646211  1 P  pz               118     -3.707530  3 O  s          
    55     -3.259527  1 P  fxzz              37     -3.231261  1 P  dyy        

 Vector   53  Occ=0.000000D+00  E= 4.106034D-01
              MO Center= -2.3D-01,  1.7D-01, -3.4D-02, r^2= 1.0D+01
   Bfn.  Coefficient  Atom+Function         Bfn.  Coefficient  Atom+Function  
  ----- ------------  ---------------      ----- ------------  ---------------
    64    -14.135277  2 O  s                229     14.112311  5 O  s          
    17     12.913010  1 P  py                16      6.717179  1 P  px         
    75      4.079961  2 O  py                35     -4.023287  1 P  dxy        
    38     -3.217552  1 P  dyz              240      3.175906  5 O  py         
   239      2.821986  5 O  px                34     -2.807684  1 P  dxx        

 Vector   54  Occ=0.000000D+00  E= 4.135766D-01
              MO Center= -5.7D-01,  3.7D-01,  5.7D-01, r^2= 1.0D+01
   Bfn.  Coefficient  Atom+Function         Bfn.  Coefficient  Atom+Function  
  ----- ------------  ---------------      ----- ------------  ---------------
   174     11.687063  4 O  s                 18     -7.521529  1 P  pz         
   119     -5.660462  3 O  s                 36     -4.751803  1 P  dxz        
   282     -4.205334  6 H  s                229     -3.812883  5 O  s          
    64     -3.721951  2 O  s                  5     -3.693173  1 P  s          
    34      2.923106  1 P  dxx               57      2.815203  1 P  fyyz       

 Vector   55  Occ=0.000000D+00  E= 4.366077D-01
              MO Center=  3.4D-01, -1.2D-01,  1.3D-01, r^2= 9.7D+00
   Bfn.  Coefficient  Atom+Function         Bfn.  Coefficient  Atom+Function  
  ----- ------------  ---------------      ----- ------------  ---------------
    38      6.368168  1 P  dyz               17     -4.583664  1 P  py         
    36      3.258740  1 P  dxz               64      2.716004  2 O  s          
   229     -2.706916  5 O  s                 16     -2.384387  1 P  px         
   291     -2.265846  6 H  py                58      1.661837  1 P  fyzz       
   241      1.585480  5 O  pz                76     -1.544205  2 O  pz         

 Vector   56  Occ=0.000000D+00  E= 4.432659D-01
              MO Center=  5.1D-01, -2.0D-01,  1.4D-01, r^2= 1.3D+01
   Bfn.  Coefficient  Atom+Function         Bfn.  Coefficient  Atom+Function  
  ----- ------------  ---------------      ----- ------------  ---------------
     5     30.299435  1 P  s                119    -17.321074  3 O  s          
    64    -16.211541  2 O  s                229    -16.211270  5 O  s          
   174    -13.680095  4 O  s                 34     11.438628  1 P  dxx        
    37     11.137271  1 P  dyy               39      9.373635  1 P  dzz        
   282      7.864901  6 H  s                 18     -5.238006  1 P  pz         

 Vector   57  Occ=0.000000D+00  E= 4.631700D-01
              MO Center=  2.3D-01, -4.0D-02,  6.9D-01, r^2= 1.2D+01
   Bfn.  Coefficient  Atom+Function         Bfn.  Coefficient  Atom+Function  
  ----- ------------  ---------------      ----- ------------  ---------------
     5     14.888537  1 P  s                 64    -10.815488  2 O  s          
   229    -10.841205  5 O  s                 16     -9.868726  1 P  px         
   119      9.521355  3 O  s                  6     -6.989646  1 P  s          
   282     -6.458761  6 H  s                 36      5.774725  1 P  dxz        
   292      5.241889  6 H  pz                17      4.912717  1 P  py         

 Vector   58  Occ=0.000000D+00  E= 4.654643D-01
              MO Center= -3.4D-01,  2.4D-01,  2.2D-01, r^2= 1.1D+01
   Bfn.  Coefficient  Atom+Function         Bfn.  Coefficient  Atom+Function  
  ----- ------------  ---------------      ----- ------------  ---------------
    16      9.244342  1 P  px               282      7.811258  6 H  s          
   174     -6.581420  4 O  s                 35      6.046252  1 P  dxy        
    17     -4.810687  1 P  py                53     -4.271703  1 P  fxyy       
    50     -4.241110  1 P  fxxx              55     -4.135708  1 P  fxzz       
    34     -2.900280  1 P  dxx              184     -2.748879  4 O  px         

 Vector   59  Occ=0.000000D+00  E= 4.674180D-01
              MO Center=  2.7D-01, -8.1D-02,  1.2D-01, r^2= 1.1D+01
   Bfn.  Coefficient  Atom+Function         Bfn.  Coefficient  Atom+Function  
  ----- ------------  ---------------      ----- ------------  ---------------
    17      9.810106  1 P  py                16      5.125149  1 P  px         
    35      4.058637  1 P  dxy               56     -4.040277  1 P  fyyy       
    51     -3.799156  1 P  fxxy              58     -3.726925  1 P  fyzz       
    53     -3.474843  1 P  fxyy             229      3.217595  5 O  s          
    64     -3.200094  2 O  s                 37     -2.896518  1 P  dyy        

 Vector   60  Occ=0.000000D+00  E= 4.861256D-01
              MO Center=  1.4D+00, -6.2D-01,  1.3D+00, r^2= 9.3D+00
   Bfn.  Coefficient  Atom+Function         Bfn.  Coefficient  Atom+Function  
  ----- ------------  ---------------      ----- ------------  ---------------
     5     20.849413  1 P  s                119    -17.047607  3 O  s          
    64     -9.748870  2 O  s                229     -9.737612  5 O  s          
    37      8.763259  1 P  dyy               34      8.262037  1 P  dxx        
   282     -5.686725  6 H  s                 18     -5.320051  1 P  pz         
   173      5.310520  4 O  s                 16      5.217599  1 P  px         

 Vector   61  Occ=0.000000D+00  E= 5.091510D-01
              MO Center= -6.3D-01,  4.0D-01,  4.3D-01, r^2= 9.7D+00
   Bfn.  Coefficient  Atom+Function         Bfn.  Coefficient  Atom+Function  
  ----- ------------  ---------------      ----- ------------  ---------------
    17     29.700979  1 P  py                16     15.402257  1 P  px         
    64    -14.274242  2 O  s                229     14.238536  5 O  s          
    58     -8.797346  1 P  fyzz              51     -8.178126  1 P  fxxy       
    56     -7.998393  1 P  fyyy              35     -5.321701  1 P  dxy        
    55     -4.561171  1 P  fxzz              50     -4.510573  1 P  fxxx       

 Vector   62  Occ=0.000000D+00  E= 5.188356D-01
              MO Center= -1.6D-01,  1.7D-01,  7.6D-01, r^2= 1.1D+01
   Bfn.  Coefficient  Atom+Function         Bfn.  Coefficient  Atom+Function  
  ----- ------------  ---------------      ----- ------------  ---------------
    18     29.411177  1 P  pz               174    -21.773197  4 O  s          
     5     12.659386  1 P  s                 52     -8.893818  1 P  fxxz       
    57     -8.924808  1 P  fyyz              39      8.843739  1 P  dzz        
    16     -8.409143  1 P  px                59     -8.246921  1 P  fzzz       
   229     -6.517295  5 O  s                 64     -6.445555  2 O  s          

 Vector   63  Occ=0.000000D+00  E= 5.735905D-01
              MO Center= -1.1D-04,  8.6D-02,  7.8D-01, r^2= 7.2D+00
   Bfn.  Coefficient  Atom+Function         Bfn.  Coefficient  Atom+Function  
  ----- ------------  ---------------      ----- ------------  ---------------
   282     15.456101  6 H  s                  5    -11.973954  1 P  s          
   174    -10.850849  4 O  s                 18      6.221068  1 P  pz         
    16      5.400352  1 P  px                 6     -4.426766  1 P  s          
    63      4.196793  2 O  s                228      4.193928  5 O  s          
   281     -3.213547  6 H  s                 39      3.040359  1 P  dzz        

 Vector   64  Occ=0.000000D+00  E= 5.883482D-01
              MO Center=  2.5D-01, -4.3D-02,  8.3D-01, r^2= 7.8D+00
   Bfn.  Coefficient  Atom+Function         Bfn.  Coefficient  Atom+Function  
  ----- ------------  ---------------      ----- ------------  ---------------
   282     16.396391  6 H  s                 18    -10.416658  1 P  pz         
    16     -8.586238  1 P  px               119      5.425223  3 O  s          
    39     -4.067923  1 P  dzz               17      4.018314  1 P  py         
   281     -3.523602  6 H  s                292     -3.528013  6 H  pz         
     5     -3.432305  1 P  s                 59      2.755884  1 P  fzzz       

 Vector   65  Occ=0.000000D+00  E= 5.918089D-01
              MO Center= -3.6D-02,  6.6D-02, -1.3D-01, r^2= 5.4D+00
   Bfn.  Coefficient  Atom+Function         Bfn.  Coefficient  Atom+Function  
  ----- ------------  ---------------      ----- ------------  ---------------
    38      4.305527  1 P  dyz               36      2.296754  1 P  dxz        
    54     -1.806730  1 P  fxyz              26      1.448924  1 P  dyz        
    57      1.335879  1 P  fyyz              52     -1.292491  1 P  fxxz       
   238      1.216332  5 O  pz                73     -1.206956  2 O  pz         
   203      1.196917  4 O  dyz              241      1.170264  5 O  pz         

 Vector   66  Occ=0.000000D+00  E= 6.073770D-01
              MO Center=  2.7D-01, -8.8D-02,  6.3D-02, r^2= 9.3D+00
   Bfn.  Coefficient  Atom+Function         Bfn.  Coefficient  Atom+Function  
  ----- ------------  ---------------      ----- ------------  ---------------
    16     32.801634  1 P  px               282    -19.291579  6 H  s          
   119    -16.987488  3 O  s                 17    -16.533729  1 P  py         
    35    -12.829550  1 P  dxy               18     11.907342  1 P  pz         
   174      9.133964  4 O  s                 55     -7.339530  1 P  fxzz       
    64      7.355685  2 O  s                229      7.361824  5 O  s          

 Vector   67  Occ=0.000000D+00  E= 6.724211D-01
              MO Center=  3.0D-01, -8.3D-02,  4.1D-01, r^2= 9.3D+00
   Bfn.  Coefficient  Atom+Function         Bfn.  Coefficient  Atom+Function  
  ----- ------------  ---------------      ----- ------------  ---------------
     5     17.974334  1 P  s                  6     17.881236  1 P  s          
    37    -17.081710  1 P  dyy               64     14.693633  2 O  s          
   229     14.690750  5 O  s                 34    -14.301722  1 P  dxx        
   118    -10.883307  3 O  s                 39    -10.790052  1 P  dzz        
   173     -9.177613  4 O  s                 18      8.725746  1 P  pz         

 Vector   68  Occ=0.000000D+00  E= 6.771535D-01
              MO Center=  1.5D-02,  3.6D-02, -2.2D-01, r^2= 5.7D+00
   Bfn.  Coefficient  Atom+Function         Bfn.  Coefficient  Atom+Function  
  ----- ------------  ---------------      ----- ------------  ---------------
    18      8.920219  1 P  pz                 5      8.788186  1 P  s          
    16      7.196267  1 P  px               118     -6.505333  3 O  s          
    64      4.915455  2 O  s                229      4.910833  5 O  s          
    51     -4.848211  1 P  fxxy              35     -3.961736  1 P  dxy        
    63     -3.411191  2 O  s                228     -3.415076  5 O  s          

 Vector   69  Occ=0.000000D+00  E= 6.953862D-01
              MO Center=  3.2D-01, -8.0D-02,  8.2D-01, r^2= 5.8D+00
   Bfn.  Coefficient  Atom+Function         Bfn.  Coefficient  Atom+Function  
  ----- ------------  ---------------      ----- ------------  ---------------
    54     -3.051535  1 P  fxyz              35      2.997441  1 P  dxy        
    17     -2.593467  1 P  py                57      2.100535  1 P  fyyz       
   228     -2.101919  5 O  s                 34      2.086189  1 P  dxx        
    52     -2.079775  1 P  fxxz              63      2.087577  2 O  s          
    37     -2.027428  1 P  dyy               38      1.934396  1 P  dyz        

 Vector   70  Occ=0.000000D+00  E= 7.464452D-01
              MO Center=  3.7D-01, -1.4D-01,  1.1D-01, r^2= 7.3D+00
   Bfn.  Coefficient  Atom+Function         Bfn.  Coefficient  Atom+Function  
  ----- ------------  ---------------      ----- ------------  ---------------
   282      6.730800  6 H  s                 35      5.050632  1 P  dxy        
   119      4.817123  3 O  s                174     -4.277460  4 O  s          
    54     -4.107854  1 P  fxyz              18      3.732339  1 P  pz         
   118      3.272904  3 O  s                 34     -3.025691  1 P  dxx        
    57     -2.581566  1 P  fyyz              16     -2.539244  1 P  px         

 Vector   71  Occ=0.000000D+00  E= 7.499752D-01
              MO Center=  6.5D-01, -2.7D-01,  2.2D-01, r^2= 6.1D+00
   Bfn.  Coefficient  Atom+Function         Bfn.  Coefficient  Atom+Function  
  ----- ------------  ---------------      ----- ------------  ---------------
    53      3.026620  1 P  fxyy              17      2.098417  1 P  py         
    38     -1.642865  1 P  dyz               64     -1.444538  2 O  s          
   229      1.451556  5 O  s                 50     -1.391952  1 P  fxxx       
    23     -1.220236  1 P  dxy              145     -1.219995  3 O  dxy        
   130      1.196359  3 O  py                58     -1.170769  1 P  fyzz       

 Vector   72  Occ=0.000000D+00  E= 7.608445D-01
              MO Center= -6.6D-01,  3.8D-01, -2.5D-01, r^2= 5.5D+00
   Bfn.  Coefficient  Atom+Function         Bfn.  Coefficient  Atom+Function  
  ----- ------------  ---------------      ----- ------------  ---------------
    53      3.796822  1 P  fxyy              90      1.388749  2 O  dxy        
    58      1.285896  1 P  fyzz              50     -1.276286  1 P  fxxx       
   255     -1.045626  5 O  dxy               54     -0.939508  1 P  fxyz       
    74     -0.806576  2 O  px               240     -0.758884  5 O  py         
    71     -0.704636  2 O  px               254      0.703706  5 O  dxx        

 Vector   73  Occ=0.000000D+00  E= 7.617125D-01
              MO Center=  5.7D-02, -9.8D-03, -8.1D-01, r^2= 6.0D+00
   Bfn.  Coefficient  Atom+Function         Bfn.  Coefficient  Atom+Function  
  ----- ------------  ---------------      ----- ------------  ---------------
     5     10.087420  1 P  s                 18      6.978971  1 P  pz         
    16      4.671566  1 P  px               173     -3.800382  4 O  s          
   282     -3.560462  6 H  s                292      2.665414  6 H  pz         
    57     -2.569862  1 P  fyyz              36      2.550151  1 P  dxz        
   281      2.408735  6 H  s                228     -2.303989  5 O  s          

 Vector   74  Occ=0.000000D+00  E= 7.674027D-01
              MO Center=  9.0D-02, -5.4D-03, -2.9D-01, r^2= 6.9D+00
   Bfn.  Coefficient  Atom+Function         Bfn.  Coefficient  Atom+Function  
  ----- ------------  ---------------      ----- ------------  ---------------
    53      3.022338  1 P  fxyy              56      1.394730  1 P  fyyy       
    91     -1.058660  2 O  dxz               90      1.033576  2 O  dxy        
   148      1.001151  3 O  dyz               35     -0.992330  1 P  dxy        
    54     -0.990370  1 P  fxyz              51      0.939683  1 P  fxxy       
   256      0.917623  5 O  dxz              130      0.743058  3 O  py         

 Vector   75  Occ=0.000000D+00  E= 7.831729D-01
              MO Center= -3.3D-01,  2.0D-01, -5.6D-01, r^2= 7.2D+00
   Bfn.  Coefficient  Atom+Function         Bfn.  Coefficient  Atom+Function  
  ----- ------------  ---------------      ----- ------------  ---------------
    26      1.331524  1 P  dyz               58     -1.274398  1 P  fyzz       
   229     -1.172393  5 O  s                 64      1.160026  2 O  s          
    75     -1.069712  2 O  py                17      0.991895  1 P  py         
   240     -0.959577  5 O  py               255     -0.927406  5 O  dxy        
    73      0.921732  2 O  pz               238     -0.919353  5 O  pz         

 Vector   76  Occ=0.000000D+00  E= 7.853631D-01
              MO Center=  5.1D-01, -2.0D-01,  1.9D-01, r^2= 7.8D+00
   Bfn.  Coefficient  Atom+Function         Bfn.  Coefficient  Atom+Function  
  ----- ------------  ---------------      ----- ------------  ---------------
   174     -4.865721  4 O  s                173     -4.544085  4 O  s          
     5      4.479111  1 P  s                281      2.729010  6 H  s          
    59      2.555308  1 P  fzzz               6      1.909385  1 P  s          
    57      1.844078  1 P  fyyz              52      1.818382  1 P  fxxz       
   183      1.511359  4 O  pz                21      1.445295  1 P  pz         

 Vector   77  Occ=0.000000D+00  E= 7.894987D-01
              MO Center= -2.4D-01,  2.2D-01,  9.7D-01, r^2= 7.4D+00
   Bfn.  Coefficient  Atom+Function         Bfn.  Coefficient  Atom+Function  
  ----- ------------  ---------------      ----- ------------  ---------------
    64      2.311353  2 O  s                229     -2.304240  5 O  s          
    17      1.836441  1 P  py               182      1.724920  4 O  py         
    51     -1.681491  1 P  fxxy             240     -1.632398  5 O  py         
    56     -1.572746  1 P  fyyy              63      1.548348  2 O  s          
    35      1.533594  1 P  dxy              228     -1.538207  5 O  s          

 Vector   78  Occ=0.000000D+00  E= 8.065333D-01
              MO Center= -4.4D-01,  2.8D-01, -2.5D-02, r^2= 8.4D+00
   Bfn.  Coefficient  Atom+Function         Bfn.  Coefficient  Atom+Function  
  ----- ------------  ---------------      ----- ------------  ---------------
   281      2.551968  6 H  s                 18      2.376354  1 P  pz         
   282     -2.334871  6 H  s                 16     -2.026558  1 P  px         
   119      1.920957  3 O  s                 35      1.521105  1 P  dxy        
   173     -1.364077  4 O  s                  5     -1.284162  1 P  s          
    21      1.250182  1 P  pz               174      1.239261  4 O  s          

 Vector   79  Occ=0.000000D+00  E= 8.090556D-01
              MO Center= -2.2D-01,  1.9D-01,  5.8D-01, r^2= 6.9D+00
   Bfn.  Coefficient  Atom+Function         Bfn.  Coefficient  Atom+Function  
  ----- ------------  ---------------      ----- ------------  ---------------
     5     14.727355  1 P  s                  6     -7.691538  1 P  s          
   119     -6.972460  3 O  s                 34      5.087727  1 P  dxx        
   173     -5.024377  4 O  s                282     -4.959655  6 H  s          
    37      4.340703  1 P  dyy              281      3.996091  6 H  s          
    39      3.793759  1 P  dzz              118     -3.650460  3 O  s          

 Vector   80  Occ=0.000000D+00  E= 8.114967D-01
              MO Center= -1.1D-01,  9.0D-02, -4.3D-01, r^2= 8.5D+00
   Bfn.  Coefficient  Atom+Function         Bfn.  Coefficient  Atom+Function  
  ----- ------------  ---------------      ----- ------------  ---------------
    64      6.612681  2 O  s                229     -6.604570  5 O  s          
    17     -2.186591  1 P  py                35      2.023840  1 P  dxy        
    56     -1.666347  1 P  fyyy              63      1.605296  2 O  s          
   228     -1.602165  5 O  s                 51     -1.573479  1 P  fxxy       
    34      1.424645  1 P  dxx               37     -1.391516  1 P  dyy        

 Vector   81  Occ=0.000000D+00  E= 8.317666D-01
              MO Center= -7.2D-02,  1.1D-01,  3.6D-01, r^2= 8.3D+00
   Bfn.  Coefficient  Atom+Function         Bfn.  Coefficient  Atom+Function  
  ----- ------------  ---------------      ----- ------------  ---------------
     5      9.331356  1 P  s                174     -7.609968  4 O  s          
    18     -6.674210  1 P  pz               119      5.346656  3 O  s          
   282      5.337717  6 H  s                 16     -4.906450  1 P  px         
    64     -4.728536  2 O  s                229     -4.736276  5 O  s          
    37      3.798632  1 P  dyy               59      3.811141  1 P  fzzz       

 Vector   82  Occ=0.000000D+00  E= 8.442803D-01
              MO Center= -2.3D-01,  1.7D-01, -5.7D-02, r^2= 7.7D+00
   Bfn.  Coefficient  Atom+Function         Bfn.  Coefficient  Atom+Function  
  ----- ------------  ---------------      ----- ------------  ---------------
     5      8.541480  1 P  s                282      7.081903  6 H  s          
    18     -5.658186  1 P  pz               174     -5.621886  4 O  s          
    59      4.900308  1 P  fzzz              64      4.744094  2 O  s          
   229      4.755962  5 O  s                183      4.565378  4 O  pz         
   118     -4.493155  3 O  s                 63     -4.374088  2 O  s          

 Vector   83  Occ=0.000000D+00  E= 8.522151D-01
              MO Center=  1.0D-01,  1.7D-02,  3.7D-01, r^2= 6.7D+00
   Bfn.  Coefficient  Atom+Function         Bfn.  Coefficient  Atom+Function  
  ----- ------------  ---------------      ----- ------------  ---------------
    58     -2.920939  1 P  fyzz              17      2.725280  1 P  py         
    38     -2.535906  1 P  dyz              291      1.919631  6 H  py         
    64      1.868640  2 O  s                229     -1.851712  5 O  s          
    55     -1.514677  1 P  fxzz              16      1.417193  1 P  px         
    51     -1.408285  1 P  fxxy             185     -1.258820  4 O  py         

 Vector   84  Occ=0.000000D+00  E= 8.711131D-01
              MO Center=  5.3D-01, -2.2D-01,  9.4D-02, r^2= 6.7D+00
   Bfn.  Coefficient  Atom+Function         Bfn.  Coefficient  Atom+Function  
  ----- ------------  ---------------      ----- ------------  ---------------
     5     17.398741  1 P  s                 16      9.105793  1 P  px         
    18      8.746359  1 P  pz                57     -7.214305  1 P  fyyz       
    63     -7.036062  2 O  s                228     -7.036343  5 O  s          
   118     -6.872298  3 O  s                183      5.794827  4 O  pz         
    52     -5.280268  1 P  fxxz             173     -5.186086  4 O  s          

 Vector   85  Occ=0.000000D+00  E= 8.721773D-01
              MO Center= -8.0D-02,  9.6D-02,  5.8D-02, r^2= 7.6D+00
   Bfn.  Coefficient  Atom+Function         Bfn.  Coefficient  Atom+Function  
  ----- ------------  ---------------      ----- ------------  ---------------
    64     -3.826575  2 O  s                 17      3.798716  1 P  py         
   229      3.811984  5 O  s                 38     -2.854947  1 P  dyz        
    16      1.946493  1 P  px                36     -1.569515  1 P  dxz        
    53      1.508845  1 P  fxyy             236      1.507813  5 O  px         
    71     -1.375837  2 O  px                50     -0.959071  1 P  fxxx       

 Vector   86  Occ=0.000000D+00  E= 8.958122D-01
              MO Center= -1.0D-01,  1.2D-01,  4.0D-01, r^2= 7.4D+00
   Bfn.  Coefficient  Atom+Function         Bfn.  Coefficient  Atom+Function  
  ----- ------------  ---------------      ----- ------------  ---------------
   282     13.665835  6 H  s                281     -7.368365  6 H  s          
    51     -4.636538  1 P  fxxy               5      4.078098  1 P  s          
   118     -4.091959  3 O  s                 63     -4.048609  2 O  s          
   228     -4.048684  5 O  s                 18     -3.910548  1 P  pz         
   174     -3.459159  4 O  s                 39     -3.398389  1 P  dzz        

 Vector   87  Occ=0.000000D+00  E= 9.017618D-01
              MO Center=  2.4D-01, -6.8D-02,  7.2D-02, r^2= 6.7D+00
   Bfn.  Coefficient  Atom+Function         Bfn.  Coefficient  Atom+Function  
  ----- ------------  ---------------      ----- ------------  ---------------
   282     13.874428  6 H  s                  5      9.945360  1 P  s          
   174     -7.447537  4 O  s                 18     -5.618628  1 P  pz         
   119     -5.102901  3 O  s                281     -4.930832  6 H  s          
    59      4.061649  1 P  fzzz              55     -3.313500  1 P  fxzz       
    36     -3.116991  1 P  dxz               37      3.009438  1 P  dyy        

 Vector   88  Occ=0.000000D+00  E= 9.164353D-01
              MO Center= -3.5D-01,  2.3D-01,  4.5D-02, r^2= 9.2D+00
   Bfn.  Coefficient  Atom+Function         Bfn.  Coefficient  Atom+Function  
  ----- ------------  ---------------      ----- ------------  ---------------
    16     25.982827  1 P  px                64     16.168680  2 O  s          
   229     16.187587  5 O  s                  5    -15.283826  1 P  s          
    17    -12.966058  1 P  py                18     12.338370  1 P  pz         
   119     -9.196299  3 O  s                 50     -8.425954  1 P  fxxx       
    55     -8.411424  1 P  fxzz              53     -7.989556  1 P  fxyy       

 Vector   89  Occ=0.000000D+00  E= 9.255534D-01
              MO Center= -4.6D-02,  7.5D-02, -6.7D-02, r^2= 6.8D+00
   Bfn.  Coefficient  Atom+Function         Bfn.  Coefficient  Atom+Function  
  ----- ------------  ---------------      ----- ------------  ---------------
    17     20.616692  1 P  py                16     10.730219  1 P  px         
    64     -9.329860  2 O  s                229      9.308149  5 O  s          
    56     -8.998397  1 P  fyyy              51     -8.793374  1 P  fxxy       
    58     -7.968859  1 P  fyzz              53     -6.045317  1 P  fxyy       
    50     -4.206578  1 P  fxxx              55     -4.109044  1 P  fxzz       

 Vector   90  Occ=0.000000D+00  E= 9.349810D-01
              MO Center=  5.6D-01, -2.3D-01,  1.0D-01, r^2= 8.1D+00
   Bfn.  Coefficient  Atom+Function         Bfn.  Coefficient  Atom+Function  
  ----- ------------  ---------------      ----- ------------  ---------------
   119    -22.119922  3 O  s                 16     22.000994  1 P  px         
    18    -14.116452  1 P  pz                 5     12.527989  1 P  s          
    17    -12.069002  1 P  py                55     -9.017824  1 P  fxzz       
[...]
     5     15.048982  1 P  s                178     14.277193  4 O  px         
   181      9.702602  4 O  px               282     -9.320731  6 H  s          
   183      7.237653  4 O  pz               210     -7.220099  4 O  fxzz       
   179     -7.114961  4 O  py               208     -7.080881  4 O  fxyy       
   205     -7.027732  4 O  fxxx             180      6.894663  4 O  pz         

 Vector  296  Occ=0.000000D+00  E= 1.568936D+01
              MO Center=  7.9D-02,  3.2D-02,  4.9D-01, r^2= 4.0D+00
   Bfn.  Coefficient  Atom+Function         Bfn.  Coefficient  Atom+Function  
  ----- ------------  ---------------      ----- ------------  ---------------
     3     12.408864  1 P  s                180      9.663012  4 O  pz         
     2      8.481932  1 P  s                183      7.408532  4 O  pz         
   123     -5.397688  3 O  px               214     -5.140480  4 O  fzzz       
   171     -5.114463  4 O  s                207     -5.096767  4 O  fxxz       
   118     -5.046308  3 O  s                212     -5.069063  4 O  fyyz       

 Vector  297  Occ=0.000000D+00  E= 1.595302D+01
              MO Center= -6.6D-01,  3.8D-01, -4.8D-01, r^2= 3.0D+00
   Bfn.  Coefficient  Atom+Function         Bfn.  Coefficient  Atom+Function  
  ----- ------------  ---------------      ----- ------------  ---------------
    69     10.368282  2 O  py               233      9.022791  5 O  px         
    72      8.894645  2 O  py               236      8.110000  5 O  px         
    11      6.154545  1 P  py               234      5.584215  5 O  py         
    96     -5.479894  2 O  fxxy             101     -5.424111  2 O  fyyy       
   103     -5.424597  2 O  fyzz             113     -5.007350  2 O  fyzz       

 Vector  298  Occ=0.000000D+00  E= 1.603629D+01
              MO Center=  5.4D-01, -2.5D-01, -3.7D-01, r^2= 3.2D+00
   Bfn.  Coefficient  Atom+Function         Bfn.  Coefficient  Atom+Function  
  ----- ------------  ---------------      ----- ------------  ---------------
   126     10.124904  3 O  px               123      9.806082  3 O  px         
   116     -6.401783  3 O  s                 16      5.979705  1 P  px         
    69     -5.989735  2 O  py               127     -5.405957  3 O  py         
   150     -5.254079  3 O  fxxx             153     -5.262265  3 O  fxyy       
   155     -5.221723  3 O  fxzz             165     -5.223404  3 O  fxzz       

 Vector  299  Occ=0.000000D+00  E= 1.689995D+01
              MO Center=  5.7D-02,  5.7D-02,  7.9D-01, r^2= 3.0D+00
   Bfn.  Coefficient  Atom+Function         Bfn.  Coefficient  Atom+Function  
  ----- ------------  ---------------      ----- ------------  ---------------
     5     25.578489  1 P  s                118    -12.714322  3 O  s          
   173    -11.946190  4 O  s                 63    -11.736935  2 O  s          
   228    -11.739411  5 O  s                171    -10.683629  4 O  s          
   183      9.778813  4 O  pz                72      9.288118  2 O  py         
   126      8.055078  3 O  px               236     -7.752275  5 O  px         

 Vector  300  Occ=0.000000D+00  E= 1.705378D+01
              MO Center=  2.5D-01, -4.3D-02,  8.5D-01, r^2= 2.4D+00
   Bfn.  Coefficient  Atom+Function         Bfn.  Coefficient  Atom+Function  
  ----- ------------  ---------------      ----- ------------  ---------------
   118     11.280526  3 O  s                173     -8.202364  4 O  s          
     5     -7.952691  1 P  s                228      7.955208  5 O  s          
    63      7.889147  2 O  s                183     -5.845256  4 O  pz         
     3     -5.551311  1 P  s                204      4.621126  4 O  dzz        
   196      4.021026  4 O  dyy              193      3.986181  4 O  dxx        

 Vector  301  Occ=0.000000D+00  E= 1.707458D+01
              MO Center= -6.4D-01,  3.7D-01, -4.4D-01, r^2= 2.1D+00
   Bfn.  Coefficient  Atom+Function         Bfn.  Coefficient  Atom+Function  
  ----- ------------  ---------------      ----- ------------  ---------------
    63      8.771553  2 O  s                228     -8.706243  5 O  s          
    69      4.558049  2 O  py                61      4.328667  2 O  s          
   226     -4.310170  5 O  s                 72      4.218383  2 O  py         
   233      3.945597  5 O  px               236      3.884970  5 O  px         
    86     -3.829763  2 O  dyy              251      3.798345  5 O  dyy        

 Vector  302  Occ=0.000000D+00  E= 1.729238D+01
              MO Center=  1.0D-01, -1.7D-02, -3.5D-01, r^2= 2.8D+00
   Bfn.  Coefficient  Atom+Function         Bfn.  Coefficient  Atom+Function  
  ----- ------------  ---------------      ----- ------------  ---------------
    63      8.433909  2 O  s                228      8.444150  5 O  s          
   118     -7.679449  3 O  s                 16     -6.585959  1 P  px         
   282      5.871417  6 H  s                126     -5.067967  3 O  px         
   123     -4.510797  3 O  px                69      4.176664  2 O  py         
   144      4.084811  3 O  dxx               72      4.060415  2 O  py         

 Vector  303  Occ=0.000000D+00  E= 1.796023D+01
              MO Center=  2.2D-01, -4.2D-02,  4.2D-01, r^2= 3.6D+00
   Bfn.  Coefficient  Atom+Function         Bfn.  Coefficient  Atom+Function  
  ----- ------------  ---------------      ----- ------------  ---------------
     5     49.389313  1 P  s                 72     19.142073  2 O  py         
   183     18.922321  4 O  pz               126     18.598543  3 O  px         
   236    -16.120203  5 O  px                63    -12.308161  2 O  s          
   228    -12.310268  5 O  s                 64     11.433083  2 O  s          
   229     11.432734  5 O  s                119     11.260062  3 O  s          

 Vector  304  Occ=0.000000D+00  E= 2.123826D+01
              MO Center= -3.4D-02,  7.8D-02,  1.8D-01, r^2= 3.5D+00
   Bfn.  Coefficient  Atom+Function         Bfn.  Coefficient  Atom+Function  
  ----- ------------  ---------------      ----- ------------  ---------------
     3     48.617236  1 P  s                  2     32.819561  1 P  s          
    72     11.679470  2 O  py               173    -10.690744  4 O  s          
   236     -9.719608  5 O  px               126      9.629291  3 O  px         
    18      8.898263  1 P  pz                51      7.537445  1 P  fxxy       
    12     -7.338258  1 P  pz                33     -6.755240  1 P  dzz        


   alpha - beta orbital overlaps 
   ----------------------------- 


   alpha      1      2      3      4      5      6      7      8      9     10
    beta      1      3      4      5      2      6      7      8      9     10
 overlap   1.000  0.999  0.999  1.000  1.000  1.000  1.000  1.000  1.000  0.994


   alpha     11     12     13     14     15     16     17     18     19     20
    beta     11     12     13     14     15     16     17     18     21     20
 overlap   0.986  1.000  0.991  0.998  0.998  0.969  0.993  0.964  0.949  0.971


   alpha     21     22     23     24     25     26     27     28     29     30
    beta     19     22     25     23     24     26     27     28     29     30
 overlap   0.997  0.978  1.000  0.989  0.991  1.000  0.999  1.000  1.000  1.000


   alpha     31     32     33     34     35     36     37     38     39     40
    beta     31     32     33     34     35     36     37     38     39     40
 overlap   0.999  0.999  1.000  0.999  1.000  0.999  0.998  0.995  0.985  0.989


   alpha     41     42     43     44     45     46     47     48     49     50
    beta     41     42     43     44     45     46     47     48     49     50
 overlap   0.983  0.923  0.932  0.982  0.989  0.993  0.995  0.999  0.999  0.998


   alpha     51     52     53     54     55     56     57     58     59     60
    beta     51     52     53     54     55     56     57     58     59     60
 overlap   1.000  0.997  0.998  0.998  0.999  1.000  0.989  0.988  0.999  1.000


   alpha     61     62     63     64     65     66     67     68     69     70
    beta     61     62     63     64     65     66     67     68     69     70
 overlap   1.000  1.000  1.000  1.000  1.000  1.000  0.999  0.999  1.000  0.999


   alpha     71     72     73     74     75     76     77     78     79     80
    beta     71     73     72     74     75     76     77     78     79     80
 overlap   0.979  0.953  0.999  0.957  0.993  0.997  0.984  0.829  0.828  0.999


   alpha     81     82     83     84     85     86     87     88     89     90
    beta     81     82     83     84     85     86     87     88     89     90
 overlap   0.989  0.991  0.998  1.000  0.998  0.999  0.998  0.997  0.999  0.998


   alpha     91     92     93     94     95     96     97     98     99    100
    beta     91     92     93     94     95     96     97     98     99    100
 overlap   0.999  1.000  1.000  0.999  0.999  0.996  0.988  0.986  0.998  0.995


   alpha    101    102    103    104    105    106    107    108    109    110
    beta    101    102    103    104    105    106    107    108    109    110
 overlap   1.000  0.995  0.999  1.000  1.000  0.999  1.000  1.000  1.000  1.000


   alpha    111    112    113    114    115    116    117    118    119    120
    beta    111    112    113    114    115    116    117    118    119    120
 overlap   0.999  0.999  0.998  0.998  0.998  0.999  1.000  1.000  1.000  1.000


   alpha    121    122    123    124    125    126    127    128    129    130
    beta    121    122    123    124    125    126    127    128    129    130
 overlap   1.000  1.000  1.000  0.998  1.000  1.000  0.997  1.000  1.000  0.999


   alpha    131    132    133    134    135    136    137    138    139    140
    beta    131    132    133    134    135    136    138    137    139    141
 overlap   0.999  0.999  0.998  0.998  0.999  0.998  0.977  0.969  0.967  0.975


   alpha    141    142    143    144    145    146    147    148    149    150
    beta    140    142    143    144    145    146    147    148    149    150
 overlap   0.971  0.975  0.995  0.998  0.991  0.997  0.989  0.997  0.995  0.995


   alpha    151    152    153    154    155    156    157    158    159    160
    beta    151    152    153    154    156    155    157    158    159    160
 overlap   0.996  0.998  0.999  0.993  0.990  0.987  0.996  0.992  0.997  0.992


   alpha    161    162    163    164    165    166    167    168    169    170
    beta    161    162    163    164    165    166    167    168    169    170
 overlap   0.999  0.992  0.961  0.955  0.997  0.992  0.993  0.999  0.998  0.997


   alpha    171    172    173    174    175    176    177    178    179    180
    beta    171    172    173    174    175    176    177    178    179    180
 overlap   0.996  0.900  0.900  0.997  0.979  0.922  0.941  0.999  1.000  0.982


   alpha    181    182    183    184    185    186    187    188    189    190
    beta    181    182    184    183    185    186    187    188    190    189
 overlap   0.981  0.994  0.989  0.986  0.997  0.997  0.999  0.998  0.994  0.992


   alpha    191    192    193    194    195    196    197    198    199    200
    beta    191    192    193    194    195    196    197    198    199    200
 overlap   1.000  1.000  1.000  1.000  0.998  0.999  0.999  0.999  1.000  1.000


   alpha    201    202    203    204    205    206    207    208    209    210
    beta    201    202    203    204    205    206    207    208    209    210
 overlap   1.000  0.937  0.937  1.000  1.000  1.000  1.000  1.000  1.000  1.000


   alpha    211    212    213    214    215    216    217    218    219    220
    beta    211    212    213    214    215    216    217    218    219    220
 overlap   1.000  1.000  1.000  1.000  1.000  1.000  1.000  0.988  0.985  0.932


   alpha    221    222    223    224    225    226    227    228    229    230
    beta    221    222    224    223    225    226    227    228    229    230
 overlap   0.978  0.924  0.991  0.982  1.000  1.000  1.000  1.000  0.996  0.997


   alpha    231    232    233    234    235    236    237    238    239    240
    beta    231    232    233    234    235    237    236    238    239    240
 overlap   0.935  0.936  0.998  0.998  0.995  0.979  0.994  0.978  0.996  0.986


   alpha    241    242    243    244    245    246    247    248    249    250
    beta    242    241    243    244    245    246    247    248    249    250
 overlap   0.978  0.802  0.803  0.962  0.971  0.945  0.979  0.996  0.992  0.987


   alpha    251    252    253    254    255    256    257    258    259    260
    beta    252    251    253    254    255    256    257    258    259    260
 overlap   0.928  0.953  0.992  0.964  0.978  0.993  0.989  0.981  0.994  0.973


   alpha    261    262    263    264    265    266    267    268    269    270
    beta    261    262    263    264    265    266    267    268    269    270
 overlap   0.976  0.978  0.971  0.997  0.985  0.983  0.998  0.999  0.996  0.994


   alpha    271    272    273    274    275    276    277    278    279    280
    beta    271    272    273    274    275    276    277    278    279    280
 overlap   0.990  0.823  0.825  0.995  0.998  1.000  1.000  1.000  1.000  1.000


   alpha    281    282    283    284    285    286    287    288    289    290
    beta    281    282    283    284    285    286    287    288    289    290
 overlap   1.000  1.000  1.000  1.000  1.000  1.000  1.000  0.987  0.987  1.000


   alpha    291    292    293    294    295    296    297    298    299    300
    beta    291    292    293    294    295    296    297    298    299    300
 overlap   0.997  0.999  0.997  1.000  1.000  1.000  1.000  1.000  0.999  0.999


   alpha    301    302    303    304
    beta    301    302    303    304
 overlap   1.000  1.000  1.000  1.000

     --------------------------
     Expectation value of S2:  
     --------------------------
      <S2> =      0.7550 (Exact =     0.7500)


 center of mass
 --------------
 x =  -0.01452624 y =   0.11455487 z =   0.16133578

 moments of inertia (a.u.)
 ------------------
         405.915988184303           1.859392765627         -14.493293106125
           1.859392765627         410.034718905014           6.942475290516
         -14.493293106125           6.942475290516         396.192336931205

     Multipole analysis of the density
     ---------------------------------

     L   x y z        total         alpha         beta         nuclear
     -   - - -        -----         -----         ----         -------
     0   0 0 0     -1.000000    -25.000000    -24.000000     48.000000

     1   1 0 0      0.349587      0.146203      0.115033      0.088352
     1   0 1 0     -0.274328     -2.762483     -2.679356      5.167511
     1   0 0 1      0.168746     -4.294352     -5.085692      9.548791

     2   2 0 0    -32.812067    -69.501610    -64.597004    101.286546
     2   1 1 0     -0.352436      0.509633      0.560960     -1.423029
     2   1 0 1      1.530519     -4.313899     -3.970768      9.815187
     2   0 2 0    -33.556904    -68.661213    -63.716180     98.820490
     2   0 1 1     -0.686469      1.643298      1.203878     -3.533645
     2   0 0 2    -31.562282    -72.326809    -71.607475    112.372001


 Task  times  cpu:       69.4s     wall:       70.9s


                                NWChem Input Module
                                -------------------


 Summary of allocated global arrays
-----------------------------------
  No active global arrays


MA_summarize_allocated_blocks: starting scan ...
heap block 'gridpts', handle 119, address 0x1032ea00:
	type of elements:		double precision
	number of elements:		33554432
	address of client space:	0x1032ea80
	index for client space:		9365673
	total number of bytes:		268435592
MA_summarize_allocated_blocks: scan completed: 1 heap block, 0 stack blocks
MA usage statistics:

	allocation statistics:
					      heap	     stack
					      ----	     -----
	current number of blocks	         1	         0
	maximum number of blocks	        21	        53
	current total bytes		 268435592	         0
	maximum total bytes		 269089288	  39027800
	maximum total K-bytes		    269090	     39028
	maximum total M-bytes		       270	        40


                                     CITATION
                                     --------
                Please cite the following reference when publishing
                           results obtained with NWChem:

          E. Apra, E. J. Bylaska, W. A. de Jong, N. Govind, K. Kowalski,
       T. P. Straatsma, M. Valiev, H. J. J. van Dam, Y. Alexeev, J. Anchell,
       V. Anisimov, F. W. Aquino, R. Atta-Fynn, J. Autschbach, N. P. Bauman,
     J. C. Becca, D. E. Bernholdt, K. Bhaskaran-Nair, S. Bogatko, P. Borowski,
         J. Boschen, J. Brabec, A. Bruner, E. Cauet, Y. Chen, G. N. Chuev,
      C. J. Cramer, J. Daily, M. J. O. Deegan, T. H. Dunning Jr., M. Dupuis,
   K. G. Dyall, G. I. Fann, S. A. Fischer, A. Fonari, H. Fruchtl, L. Gagliardi,
      J. Garza, N. Gawande, S. Ghosh, K. Glaesemann, A. W. Gotz, J. Hammond,
       V. Helms, E. D. Hermes, K. Hirao, S. Hirata, M. Jacquelin, L. Jensen,
   B. G. Johnson, H. Jonsson, R. A. Kendall, M. Klemm, R. Kobayashi, V. Konkov,
      S. Krishnamoorthy, M. Krishnan, Z. Lin, R. D. Lins, R. J. Littlefield,
      A. J. Logsdail, K. Lopata, W. Ma, A. V. Marenich, J. Martin del Campo,
   D. Mejia-Rodriguez, J. E. Moore, J. M. Mullin, T. Nakajima, D. R. Nascimento,
    J. A. Nichols, P. J. Nichols, J. Nieplocha, A. Otero-de-la-Roza, B. Palmer,
    A. Panyala, T. Pirojsirikul, B. Peng, R. Peverati, J. Pittner, L. Pollack,
   R. M. Richard, P. Sadayappan, G. C. Schatz, W. A. Shelton, D. W. Silverstein,
   D. M. A. Smith, T. A. Soares, D. Song, M. Swart, H. L. Taylor, G. S. Thomas,
            V. Tipparaju, D. G. Truhlar, K. Tsemekhman, T. Van Voorhis,
      A. Vazquez-Mayagoitia, P. Verma, O. Villa, A. Vishnu, K. D. Vogiatzis,
        D. Wang, J. H. Weare, M. J. Williamson, T. L. Windus, K. Wolinski,
        A. T. Wong, Q. Wu, C. Yang, Q. Yu, M. Zacharias, Z. Zhang, Y. Zhao,
                                and R. J. Harrison
                        "NWChem: Past, present, and future
                         J. Chem. Phys. 152, 184102 (2020)
                               doi:10.1063/5.0004997

                                      AUTHORS
                                      -------
  E. Apra, E. J. Bylaska, N. Govind, K. Kowalski, M. Valiev, D. Mejia-Rodriguez,
       A. Kunitsa, N. P. Bauman, A. Panyala, W. A. de Jong, T. P. Straatsma,
   H. J. J. van Dam, D. Wang, T. L. Windus, J. Hammond, J. Autschbach, A. Woods,
    K. Bhaskaran-Nair, J. Brabec, K. Lopata, S. A. Fischer, S. Krishnamoorthy,
     M. Jacquelin, W. Ma, M. Klemm, O. Villa, Y. Chen, V. Anisimov, F. Aquino,
     S. Hirata, M. T. Hackler, E. Hermes, L. Jensen, J. E. Moore, J. C. Becca,
      V. Konjkov, T. Risthaus, M. Malagoli, A. Marenich, A. Otero-de-la-Roza,
        J. Mullin, P. Nichols, R. Peverati, J. Pittner, Y. Zhao, P.-D. Fan,
        A. Fonari, M. J. Williamson, R. J. Harrison, J. R. Rehr, M. Dupuis,
     D. Silverstein, D. M. A. Smith, J. Nieplocha, V. Tipparaju, M. Krishnan,
     B. E. Van Kuiken, A. Vazquez-Mayagoitia, M. Swart, Q. Wu, T. Van Voorhis,
     A. A. Auer, M. Nooijen, L. D. Crosby, E. Brown, G. Cisneros, G. I. Fann,
   H. Fruchtl, J. Garza, K. Hirao, R. A. Kendall, J. A. Nichols, K. Tsemekhman,
    K. Wolinski, J. Anchell, D. E. Bernholdt, P. Borowski, T. Clark, D. Clerc,
   H. Dachsel, M. J. O. Deegan, K. Dyall, D. Elwood, E. Glendening, M. Gutowski,
   A. C. Hess, J. Jaffe, B. G. Johnson, J. Ju, R. Kobayashi, R. Kutteh, Z. Lin,
   R. Littlefield, X. Long, B. Meng, T. Nakajima, S. Niu, L. Pollack, M. Rosing,
   K. Glaesemann, G. Sandrone, M. Stave, H. Taylor, G. Thomas, J. H. van Lenthe,
                               A. T. Wong, Z. Zhang.

 Total times  cpu:       69.5s     wall:       71.1s
