 argument  1 = 0e/mol.nwi
                                         
                                         


             Northwest Computational Chemistry Package (NWChem) 7.2.2
             --------------------------------------------------------


                    Environmental Molecular Sciences Laboratory
                       Pacific Northwest National Laboratory
                                Richland, WA 99352

                              Copyright (c) 1994-2022
                       Pacific Northwest National Laboratory
                            Battelle Memorial Institute

             NWChem is an open-source computational chemistry package
                        distributed under the terms of the
                      Educational Community License (ECL) 2.0
             A copy of the license is included with this distribution
                              in the LICENSE.TXT file

                                  ACKNOWLEDGMENT
                                  --------------

            This software and its documentation were developed at the
            EMSL at Pacific Northwest National Laboratory, a multiprogram
            national laboratory, operated for the U.S. Department of Energy
            by Battelle under Contract Number DE-AC05-76RL01830. Support
            for this work was provided by the Department of Energy Office
            of Biological and Environmental Research, Office of Basic
            Energy Sciences, and the Office of Advanced Scientific Computing.


           Job information
           ---------------

    hostname        = r241.ib.bridges2.psc.edu
    program         = nwchem
    date            = Tue Oct  1 15:06:50 2024

    compiled        = Mon_Mar_18_17:03:37_2024
    source          = /ocean/projects/pscstaff/mmadrid/nwchem-7.2.2
    nwchem branch   = 7.2.2
    nwchem revision = 74936fb9
    ga revision     = 5.8.0
    use scalapack   = F
    input           = 0e/mol.nwi
    prefix          = dft.
    data base       = .//dft.db
    status          = startup
    nproc           =       15
    time left       =     -1s



           Memory information
           ------------------

    heap     =   67108858 doubles =    512.0 Mbytes
    stack    =   67108863 doubles =    512.0 Mbytes
    global   =  134217728 doubles =   1024.0 Mbytes (distinct from heap & stack)
    total    =  268435449 doubles =   2048.0 Mbytes
    verify   = yes
    hardfail = no 


           Directory information
           ---------------------

  0 permanent = ./
  0 scratch   = /jet/home/hmt47/nwchem_scratch/




                                NWChem Input Module
                                -------------------


  library name resolved from: environment
  library file name is: </opt/packages/nwchem/nwchem7.2.2/share/nwchem/libraries/>
  


 Summary of "ao basis" -> "" (cartesian)
 ------------------------------------------------------------------------------
       Tag                 Description            Shells   Functions and Types
 ---------------- ------------------------------  ------  ---------------------
 *                        aug-cc-pVTZ                 on all atoms 


  pbe96 is a nonlocal functional; adding pw91lda local functional. 

 Scaling coordinates for geometry "geometry" by  1.889725989
 (inverse scale =  0.529177249)



                             Geometry "geometry" -> ""
                             -------------------------

 Output coordinates in angstroms (scale by  1.889725989 to convert to a.u.)

  No.       Tag          Charge          X              Y              Z
 ---- ---------------- ---------- -------------- -------------- --------------
    1 C                    6.0000     0.00247296     0.00137558    -0.05190866
    2 C                    6.0000    -0.04450951     0.00557053     1.54184831
    3 O                    8.0000     0.58166064     0.98432911    -0.56322479
    4 O                    8.0000    -0.54679275    -1.01296272    -0.53798560
    5 F                    9.0000     0.39986057     1.15929019     2.13146371
    6 F                    9.0000    -1.31127490    -0.19281190     2.03821512
    7 F                    9.0000     0.72972599    -1.00151679     2.07669890

      Atomic Mass 
      ----------- 

      C                 12.000000
      O                 15.994910
      F                 18.998400


 Effective nuclear repulsion energy (a.u.)     318.3494695105

            Nuclear Dipole moment (a.u.) 
            ----------------------------
        X                 Y               Z
 ---------------- ---------------- ----------------
    -3.0395699041    -0.9500384246   106.4810599029


            XYZ format geometry
            -------------------
     7
 geometry
 C                     0.00247296     0.00137558    -0.05190866
 C                    -0.04450951     0.00557053     1.54184831
 O                     0.58166064     0.98432911    -0.56322479
 O                    -0.54679275    -1.01296272    -0.53798560
 F                     0.39986057     1.15929019     2.13146371
 F                    -1.31127490    -0.19281190     2.03821512
 F                     0.72972599    -1.00151679     2.07669890

 ==============================================================================
                                internuclear distances
 ------------------------------------------------------------------------------
       center one      |      center two      | atomic units |  angstroms
 ------------------------------------------------------------------------------
    2 C                |   1 C                |     3.01308  |     1.59445
    3 O                |   1 C                |     2.36261  |     1.25024
    4 O                |   1 C                |     2.36544  |     1.25174
    5 F                |   2 C                |     2.58843  |     1.36974
    6 F                |   2 C                |     2.59824  |     1.37493
    7 F                |   2 C                |     2.60462  |     1.37831
 ------------------------------------------------------------------------------
                         number of included internuclear distances:          6
 ==============================================================================



 ==============================================================================
                                 internuclear angles
 ------------------------------------------------------------------------------
        center 1       |       center 2       |       center 3       |  degrees
 ------------------------------------------------------------------------------
    2 C                |   1 C                |   3 O                |   114.86
    2 C                |   1 C                |   4 O                |   112.17
    3 O                |   1 C                |   4 O                |   132.97
    1 C                |   2 C                |   5 F                |   115.02
    1 C                |   2 C                |   6 F                |   112.81
    1 C                |   2 C                |   7 F                |   111.68
    5 F                |   2 C                |   6 F                |   105.37
    5 F                |   2 C                |   7 F                |   105.44
    6 F                |   2 C                |   7 F                |   105.78
 ------------------------------------------------------------------------------
                            number of included internuclear angles:          9
 ==============================================================================




                                 NWChem DFT Module
                                 -----------------


                      Basis "ao basis" -> "ao basis" (cartesian)
                      -----
  C (Carbon)
  ----------
            Exponent  Coefficients 
       -------------- ---------------------------------------------------------
  1 S  8.23600000E+03  0.000531
  1 S  1.23500000E+03  0.004108
  1 S  2.80800000E+02  0.021087
  1 S  7.92700000E+01  0.081853
  1 S  2.55900000E+01  0.234817
  1 S  8.99700000E+00  0.434401
  1 S  3.31900000E+00  0.346129
  1 S  3.64300000E-01 -0.008983

  2 S  8.23600000E+03 -0.000113
  2 S  1.23500000E+03 -0.000878
  2 S  2.80800000E+02 -0.004540
  2 S  7.92700000E+01 -0.018133
  2 S  2.55900000E+01 -0.055760
  2 S  8.99700000E+00 -0.126895
  2 S  3.31900000E+00 -0.170352
  2 S  3.64300000E-01  0.598684

  3 S  9.05900000E-01  1.000000

  4 S  1.28500000E-01  1.000000

  5 S  4.40200000E-02  1.000000

  6 P  1.87100000E+01  0.014031
  6 P  4.13300000E+00  0.086866
  6 P  1.20000000E+00  0.290216

  7 P  3.82700000E-01  1.000000

  8 P  1.20900000E-01  1.000000

  9 P  3.56900000E-02  1.000000

 10 D  1.09700000E+00  1.000000

 11 D  3.18000000E-01  1.000000

 12 D  1.00000000E-01  1.000000

 13 F  7.61000000E-01  1.000000

 14 F  2.68000000E-01  1.000000

  O (Oxygen)
  ----------
            Exponent  Coefficients 
       -------------- ---------------------------------------------------------
  1 S  1.53300000E+04  0.000508
  1 S  2.29900000E+03  0.003929
  1 S  5.22400000E+02  0.020243
  1 S  1.47300000E+02  0.079181
  1 S  4.75500000E+01  0.230687
  1 S  1.67600000E+01  0.433118
  1 S  6.20700000E+00  0.350260
  1 S  6.88200000E-01 -0.008154

  2 S  1.53300000E+04 -0.000115
  2 S  2.29900000E+03 -0.000895
  2 S  5.22400000E+02 -0.004636
  2 S  1.47300000E+02 -0.018724
  2 S  4.75500000E+01 -0.058463
  2 S  1.67600000E+01 -0.136463
  2 S  6.20700000E+00 -0.175740
  2 S  6.88200000E-01  0.603418

  3 S  1.75200000E+00  1.000000

  4 S  2.38400000E-01  1.000000

  5 S  7.37600000E-02  1.000000

  6 P  3.44600000E+01  0.015928
  6 P  7.74900000E+00  0.099740
  6 P  2.28000000E+00  0.310492

  7 P  7.15600000E-01  1.000000

  8 P  2.14000000E-01  1.000000

  9 P  5.97400000E-02  1.000000

 10 D  2.31400000E+00  1.000000

 11 D  6.45000000E-01  1.000000

 12 D  2.14000000E-01  1.000000

 13 F  1.42800000E+00  1.000000

 14 F  5.00000000E-01  1.000000

  F (Fluorine)
  ------------
            Exponent  Coefficients 
       -------------- ---------------------------------------------------------
  1 S  1.95000000E+04  0.000507
  1 S  2.92300000E+03  0.003923
  1 S  6.64500000E+02  0.020200
  1 S  1.87500000E+02  0.079010
  1 S  6.06200000E+01  0.230439
  1 S  2.14200000E+01  0.432872
  1 S  7.95000000E+00  0.349964
  1 S  8.81500000E-01 -0.007892

  2 S  1.95000000E+04 -0.000117
  2 S  2.92300000E+03 -0.000912
  2 S  6.64500000E+02 -0.004717
  2 S  1.87500000E+02 -0.019086
  2 S  6.06200000E+01 -0.059655
  2 S  2.14200000E+01 -0.140010
  2 S  7.95000000E+00 -0.176782
  2 S  8.81500000E-01  0.605043

  3 S  2.25700000E+00  1.000000

  4 S  3.04100000E-01  1.000000

  5 S  9.15800000E-02  1.000000

  6 P  4.38800000E+01  0.016665
  6 P  9.92600000E+00  0.104472
  6 P  2.93000000E+00  0.317260

  7 P  9.13200000E-01  1.000000

  8 P  2.67200000E-01  1.000000

  9 P  7.36100000E-02  1.000000

 10 D  3.10700000E+00  1.000000

 11 D  8.55000000E-01  1.000000

 12 D  2.92000000E-01  1.000000

 13 F  1.91700000E+00  1.000000

 14 F  7.24000000E-01  1.000000



 Summary of "ao basis" -> "ao basis" (cartesian)
 ------------------------------------------------------------------------------
       Tag                 Description            Shells   Functions and Types
 ---------------- ------------------------------  ------  ---------------------
 C                        aug-cc-pVTZ               14       55   5s4p3d2f
 O                        aug-cc-pVTZ               14       55   5s4p3d2f
 F                        aug-cc-pVTZ               14       55   5s4p3d2f




 Summary of "ao basis" -> "ao basis" (cartesian)
 ------------------------------------------------------------------------------
       Tag                 Description            Shells   Functions and Types
 ---------------- ------------------------------  ------  ---------------------
 C                        aug-cc-pVTZ               14       55   5s4p3d2f
 O                        aug-cc-pVTZ               14       55   5s4p3d2f
 F                        aug-cc-pVTZ               14       55   5s4p3d2f


  Caching 1-el integrals 

            General Information
            -------------------
          SCF calculation type: DFT
          Wavefunction type:  spin polarized.
          No. of atoms     :     7
          No. of electrons :    55
           Alpha electrons :    28
            Beta electrons :    27
          Charge           :     0
          Spin multiplicity:     2
          Use of symmetry is: off; symmetry adaption is: off
          Maximum number of iterations: 200
          AO basis - number of functions:   385
                     number of shells:    98
          Convergence on energy requested:  1.00D-06
          Convergence on density requested:  1.00D-05
          Convergence on gradient requested:  5.00D-04

              XC Information
              --------------
          PerdewBurkeErnzerhof Exchange Functional  1.000          
            Perdew 1991 LDA Correlation Functional  1.000 local    
           PerdewBurkeErnz. Correlation Functional  1.000 non-local

             Grid Information
             ----------------
          Grid used for XC integration:  medium    
          Radial quadrature: Mura-Knowles        
          Angular quadrature: Lebedev. 
          Tag              B.-S. Rad. Rad. Pts. Rad. Cut. Ang. Pts.
          ---              ---------- --------- --------- ---------
          C                   0.70       49          11.0       434
          O                   0.60       49          12.0       434
          F                   0.50       49          12.0       434
          Grid pruning is: on 
          Number of quadrature shells:   343
          Spatial weights used:  Erf1

          Convergence Information
          -----------------------
          Convergence aids based upon iterative change in 
          total energy or number of iterations. 
          Levelshifting, if invoked, occurs when the 
          HOMO/LUMO gap drops below (HL_TOL):  1.00D-02
          DIIS, if invoked, will attempt to extrapolate 
          using up to (NFOCK): 10 stored Fock matrices.

                    Damping(40%)  Levelshifting(0.0)       DIIS
                  --------------- ------------------- ---------------
          dE  on:    start            0.00D+00            start   
          dE off:  200 iters          0.00D+00          200 iters 


      Screening Tolerance Information
      -------------------------------
          Density screening/tol_rho:  1.00D-10
          AO Gaussian exp screening on grid/accAOfunc:  14
          CD Gaussian exp screening on grid/accCDfunc:  20
          XC Gaussian exp screening on grid/accXCfunc:  20
          Schwarz screening/accCoul:  1.00D-08


 Forcing the number of linearly dependent vectors to be  0

      Superposition of Atomic Density Guess
      -------------------------------------

 Sum of atomic energies:        -523.14221801
   Time after variat. SCF:      0.3
   Time prior to 1st pass:      0.4

 Grid_pts file          = /jet/home/hmt47/nwchem_scratch//dft.gridpts.00
 Record size in doubles =  12289        No. of grid_pts per rec  =   3070
 Max. records in memory =      5        Max. recs in file   =  67550051


           Memory utilization after 1st SCF pass: 
           Heap Space remaining (MW):       33.49            33485746
          Stack Space remaining (MW):       67.11            67105644

   convergence    iter        energy       DeltaE   RMS-Dens  Diis-err    time
 ---------------- ----- ----------------- --------- --------- ---------  ------
 d=40,ls=0.0,diis     1   -526.8086538046 -8.45D+02  3.97D-03  1.36D+01     1.5
                                                     3.62D-03  1.27D+01
 d=40,ls=0.0,diis     2   -526.1776218660  6.31D-01  2.89D-03  2.33D+00     8.4
                                                     3.09D-03  2.17D+00
 d=40,ls=0.0,diis     3   -525.5576072024  6.20D-01  1.07D-03  1.07D+00    15.3
                                                     1.53D-03  9.55D-01
 d=40,ls=0.0,diis     4   -525.7630974265 -2.05D-01  5.47D-04  2.16D-01    22.3
                                                     1.38D-03  1.86D-01
 d=40,ls=0.0,diis     5   -525.7373041786  2.58D-02  2.55D-04  2.11D-01    29.2
                                                     5.72D-04  1.65D-01
  Resetting Diis
 d=40,ls=0.0,diis     6   -525.7581256224 -2.08D-02  1.34D-04  1.53D-01    36.1
                                                     5.35D-04  1.22D-01
 d=40,ls=0.0,diis     7   -525.7930241018 -3.49D-02  9.24D-04  7.18D-02    43.0
                                                     1.69D-03  6.16D-02
 d=40,ls=0.0,diis     8   -525.6089597397  1.84D-01  4.06D-04  4.83D-01    49.9
                                                     7.44D-04  3.98D-01
 d=40,ls=0.0,diis     9   -525.7221110124 -1.13D-01  2.36D-04  2.16D-01    56.9
                                                     3.46D-04  1.91D-01
 d=40,ls=0.0,diis    10   -525.7570463960 -3.49D-02  1.24D-04  1.44D-01    63.8
                                                     3.05D-04  1.26D-01
 d=40,ls=0.0,diis    11   -525.7897424424 -3.27D-02  8.25D-05  7.56D-02    70.7
                                                     7.83D-05  6.80D-02
 d=40,ls=0.0,diis    12   -525.7943421382 -4.60D-03  3.66D-05  6.82D-02    77.7
                                                     9.40D-05  6.17D-02
 d=40,ls=0.0,diis    13   -525.8007499302 -6.41D-03  4.65D-05  5.51D-02    84.6
                                                     2.69D-04  5.06D-02
 d=40,ls=0.0,diis    14   -525.8127857723 -1.20D-02  6.15D-05  2.87D-02    91.5
                                                     4.92D-04  2.71D-02
 d=40,ls=0.0,diis    15   -525.8247925959 -1.20D-02  1.32D-05  1.98D-03    98.4
                                                     1.24D-04  1.97D-03
 d=40,ls=0.0,diis    16   -525.8257285274 -9.36D-04  1.24D-05  2.08D-04   105.4
                                                     6.57D-05  2.14D-04
 d=40,ls=0.0,diis    17   -525.8258761881 -1.48D-04  7.25D-06  1.84D-05   112.4
                                                     3.43D-05  1.59D-05
 d=40,ls=0.0,diis    18   -525.8258465846  2.96D-05  2.88D-06  1.46D-04   119.3
                                                     1.94D-05  1.38D-04
 d=40,ls=0.0,diis    19   -525.8257951700  5.14D-05  2.80D-06  2.86D-04   126.3
                                                     5.79D-05  2.74D-04
 d=40,ls=0.0,diis    20   -525.8259228105 -1.28D-04  2.17D-06  7.63D-06   133.2
                                                     1.51D-05  6.27D-06
 d=40,ls=0.0,diis    21   -525.8259120882  1.07D-05  2.02D-06  3.77D-05   140.1
                                                     4.25D-06  3.53D-05
 d=40,ls=0.0,diis    22   -525.8259192383 -7.15D-06  1.14D-06  2.36D-05   147.1
                                                     2.90D-06  2.24D-05
 d=40,ls=0.0,diis    23   -525.8259230480 -3.81D-06  7.93D-07  1.58D-05   154.0
                                                     7.12D-06  1.52D-05
 d=40,ls=0.0,diis    24   -525.8259283234 -5.28D-06  4.88D-07  4.27D-06   160.9
                                                     4.58D-06  4.11D-06
 d=40,ls=0.0,diis    25   -525.8259299822 -1.66D-06  2.04D-07  7.12D-07   167.8
                                                     2.09D-06  6.84D-07
 d=40,ls=0.0,diis    26   -525.8259303026 -3.20D-07  8.50D-08  8.43D-08   174.7
                                                     7.14D-07  8.07D-08


         Total DFT energy =     -525.825930302643
      One electron energy =    -1358.779226028248
           Coulomb energy =      573.282565322632
    Exchange-Corr. energy =      -58.678739107555
 Nuclear repulsion energy =      318.349469510529

 Numeric. integr. density =       55.000002028931

     Total iterative time =    174.4s



                    DFT Final Alpha Molecular Orbital Analysis
                    ------------------------------------------

 Vector    1  Occ=1.000000D+00  E=-2.434111D+01
              MO Center=  7.3D-01, -1.0D+00,  2.1D+00, r^2= 1.2D-02
   Bfn.  Coefficient  Atom+Function         Bfn.  Coefficient  Atom+Function  
  ----- ------------  ---------------      ----- ------------  ---------------
   331      0.977581  7 F  s                333      0.064742  7 F  s          
   334     -0.039887  7 F  s                 59     -0.037141  2 C  s          
     4     -0.035736  1 C  s                 68      0.030417  2 C  py         
   225     -0.028820  5 F  s                363      0.028865  7 F  dyy        
   360      0.028023  7 F  dxx              365      0.027080  7 F  dzz        

 Vector    2  Occ=1.000000D+00  E=-2.434007D+01
              MO Center= -1.3D+00, -1.9D-01,  2.0D+00, r^2= 1.2D-02
   Bfn.  Coefficient  Atom+Function         Bfn.  Coefficient  Atom+Function  
  ----- ------------  ---------------      ----- ------------  ---------------
   276      0.977470  6 F  s                278      0.064648  6 F  s          
   279     -0.042385  6 F  s                  4     -0.037679  1 C  s          
   305      0.030022  6 F  dxx               67      0.029295  2 C  px         
   280     -0.028523  6 F  s                 59     -0.028268  2 C  s          
   225     -0.028330  5 F  s                 88      0.027952  2 C  dyy        

 Vector    3  Occ=1.000000D+00  E=-2.433772D+01
              MO Center=  4.0D-01,  1.2D+00,  2.1D+00, r^2= 1.2D-02
   Bfn.  Coefficient  Atom+Function         Bfn.  Coefficient  Atom+Function  
  ----- ------------  ---------------      ----- ------------  ---------------
   221      0.977703  5 F  s                223      0.064687  5 F  s          
   224     -0.043913  5 F  s                 14     -0.033410  1 C  pz         
    68     -0.030931  2 C  py               253      0.029765  5 F  dyy        
     4     -0.028421  1 C  s                255      0.026809  5 F  dzz        
   250      0.026310  5 F  dxx              225     -0.025801  5 F  s          

 Vector    4  Occ=1.000000D+00  E=-1.884348D+01
              MO Center= -5.0D-01, -9.3D-01, -5.4D-01, r^2= 2.3D-01
   Bfn.  Coefficient  Atom+Function         Bfn.  Coefficient  Atom+Function  
  ----- ------------  ---------------      ----- ------------  ---------------
   166      0.962346  4 O  s                111      0.202284  3 O  s          
   168      0.066691  4 O  s                 59     -0.064178  2 C  s          
    50      0.049911  1 C  fxyz             114      0.049864  3 O  s          
     4     -0.048914  1 C  s                 53      0.048153  1 C  fyyz       
    54     -0.039579  1 C  fyzz             169     -0.036968  4 O  s          

 Vector    5  Occ=1.000000D+00  E=-1.884341D+01
              MO Center=  5.3D-01,  9.0D-01, -5.6D-01, r^2= 2.3D-01
   Bfn.  Coefficient  Atom+Function         Bfn.  Coefficient  Atom+Function  
  ----- ------------  ---------------      ----- ------------  ---------------
   111      0.961200  3 O  s                166     -0.199604  4 O  s          
   169      0.069190  4 O  s                113      0.066072  3 O  s          
   114     -0.057776  3 O  s                 54      0.054132  1 C  fyzz       
     4     -0.051398  1 C  s                 13     -0.033458  1 C  py         
    51      0.030904  1 C  fxzz              50      0.029930  1 C  fxyz       

 Vector    6  Occ=1.000000D+00  E=-1.020931D+01
              MO Center= -4.5D-02,  5.6D-03,  1.5D+00, r^2= 2.8D-02
   Bfn.  Coefficient  Atom+Function         Bfn.  Coefficient  Atom+Function  
  ----- ------------  ---------------      ----- ------------  ---------------
    56      1.011371  2 C  s                 57      0.081375  2 C  s          
    58      0.064610  2 C  s                224     -0.029806  5 F  s          
   287     -0.028684  6 F  px               279     -0.028016  6 F  s          
   108      0.027422  2 C  fyyz             334     -0.026738  7 F  s          
   233      0.025258  5 F  py         

 Vector    7  Occ=1.000000D+00  E=-1.008380D+01
              MO Center=  2.5D-03,  1.4D-03, -5.2D-02, r^2= 2.8D-02
   Bfn.  Coefficient  Atom+Function         Bfn.  Coefficient  Atom+Function  
  ----- ------------  ---------------      ----- ------------  ---------------
     1      1.012571  1 C  s                  2      0.085351  1 C  s          
     3      0.067469  1 C  s                114     -0.057171  3 O  s          
   169     -0.055603  4 O  s                  4     -0.050222  1 C  s          
    27      0.034203  1 C  dyy               25      0.033884  1 C  dxy        
    69     -0.031144  2 C  pz                33     -0.030452  1 C  dyy        

 Vector    8  Occ=1.000000D+00  E=-1.247068D+00
              MO Center= -5.9D-02, -5.4D-03,  2.0D+00, r^2= 1.4D+00
   Bfn.  Coefficient  Atom+Function         Bfn.  Coefficient  Atom+Function  
  ----- ------------  ---------------      ----- ------------  ---------------
   222      0.265391  5 F  s                277      0.265084  6 F  s          
   332      0.263958  7 F  s                 57      0.195170  2 C  s          
   224      0.191776  5 F  s                279      0.191852  6 F  s          
   334      0.191711  7 F  s                223      0.079199  5 F  s          
   278      0.079096  6 F  s                333      0.078756  7 F  s          

 Vector    9  Occ=1.000000D+00  E=-1.164423D+00
              MO Center= -1.6D-01, -5.5D-01,  2.0D+00, r^2= 1.4D+00
   Bfn.  Coefficient  Atom+Function         Bfn.  Coefficient  Atom+Function  
  ----- ------------  ---------------      ----- ------------  ---------------
   332      0.388849  7 F  s                277     -0.347553  6 F  s          
   334      0.271195  7 F  s                279     -0.241163  6 F  s          
   333      0.115294  7 F  s                278     -0.103068  6 F  s          
    61      0.078321  2 C  px                64      0.065331  2 C  px         
    62     -0.039565  2 C  py               222     -0.038960  5 F  s          

 Vector   10  Occ=1.000000D+00  E=-1.163186D+00
              MO Center=  4.1D-02,  5.2D-01,  2.0D+00, r^2= 1.4D+00
   Bfn.  Coefficient  Atom+Function         Bfn.  Coefficient  Atom+Function  
  ----- ------------  ---------------      ----- ------------  ---------------
   222      0.423479  5 F  s                224      0.294236  5 F  s          
   277     -0.247508  6 F  s                332     -0.178899  7 F  s          
   279     -0.171095  6 F  s                223      0.125391  5 F  s          
   334     -0.123523  7 F  s                 62      0.079022  2 C  py         
   278     -0.073232  6 F  s                 65      0.067547  2 C  py         

 Vector   11  Occ=1.000000D+00  E=-1.066172D+00
              MO Center=  9.4D-03, -1.4D-02, -3.7D-01, r^2= 1.2D+00
   Bfn.  Coefficient  Atom+Function         Bfn.  Coefficient  Atom+Function  
  ----- ------------  ---------------      ----- ------------  ---------------
   167      0.291722  4 O  s                112      0.289786  3 O  s          
     2      0.274557  1 C  s                169      0.148426  4 O  s          
   114      0.142316  3 O  s                168      0.082693  4 O  s          
   113      0.082131  3 O  s                  3      0.079193  1 C  s          
   115      0.076427  3 O  s                170      0.075826  4 O  s          

 Vector   12  Occ=1.000000D+00  E=-9.948201D-01
              MO Center=  1.6D-02, -3.1D-03, -3.9D-01, r^2= 1.3D+00
   Bfn.  Coefficient  Atom+Function         Bfn.  Coefficient  Atom+Function  
  ----- ------------  ---------------      ----- ------------  ---------------
   112      0.338882  3 O  s                167     -0.336395  4 O  s          
   114      0.296458  3 O  s                169     -0.295380  4 O  s          
     7      0.145269  1 C  py               113      0.093552  3 O  s          
   168     -0.092843  4 O  s                  6      0.082118  1 C  px         
   172     -0.051954  4 O  py               175     -0.052073  4 O  py         

 Vector   13  Occ=1.000000D+00  E=-7.239481D-01
              MO Center= -3.8D-02, -1.3D-02,  1.3D+00, r^2= 2.1D+00
   Bfn.  Coefficient  Atom+Function         Bfn.  Coefficient  Atom+Function  
  ----- ------------  ---------------      ----- ------------  ---------------
    57      0.341153  2 C  s                 11      0.145639  1 C  pz         
    59     -0.146319  2 C  s                277     -0.133089  6 F  s          
   332     -0.133735  7 F  s                222     -0.132205  5 F  s          
     8      0.125517  1 C  pz                 2      0.120666  1 C  s          
   287      0.116853  6 F  px                66     -0.109654  2 C  pz         

 Vector   14  Occ=1.000000D+00  E=-6.150031D-01
              MO Center= -4.4D-02,  6.1D-03,  1.4D+00, r^2= 2.4D+00
   Bfn.  Coefficient  Atom+Function         Bfn.  Coefficient  Atom+Function  
  ----- ------------  ---------------      ----- ------------  ---------------
    59      0.220140  2 C  s                 63      0.204188  2 C  pz         
    66      0.188838  2 C  pz                 4     -0.163845  1 C  s          
   224     -0.151557  5 F  s                279     -0.152138  6 F  s          
   334     -0.149558  7 F  s                  2     -0.148301  1 C  s          
   281      0.143239  6 F  px               227     -0.138378  5 F  py         

 Vector   15  Occ=1.000000D+00  E=-5.772556D-01
              MO Center= -9.5D-02, -3.8D-01,  1.9D+00, r^2= 1.9D+00
   Bfn.  Coefficient  Atom+Function         Bfn.  Coefficient  Atom+Function  
  ----- ------------  ---------------      ----- ------------  ---------------
    61      0.187219  2 C  px               337      0.178133  7 F  py         
   340      0.171803  7 F  py                64      0.159430  2 C  px         
   281     -0.154711  6 F  px               284     -0.149354  6 F  px         
   334     -0.149881  7 F  s                279      0.132319  6 F  s          
   332     -0.115505  7 F  s                338     -0.114638  7 F  pz         

 Vector   16  Occ=1.000000D+00  E=-5.739047D-01
              MO Center= -1.6D-02,  3.6D-01,  2.0D+00, r^2= 1.9D+00
   Bfn.  Coefficient  Atom+Function         Bfn.  Coefficient  Atom+Function  
  ----- ------------  ---------------      ----- ------------  ---------------
   227     -0.192950  5 F  py                62      0.187430  2 C  py         
   230     -0.186107  5 F  py                65      0.165528  2 C  py         
   224     -0.165087  5 F  s                281     -0.142948  6 F  px         
   284     -0.137814  6 F  px               228     -0.135429  5 F  pz         
   231     -0.131468  5 F  pz               336      0.125329  7 F  px         

 Vector   17  Occ=1.000000D+00  E=-5.107878D-01
              MO Center=  1.0D-02,  6.7D-03, -2.3D-01, r^2= 2.7D+00
   Bfn.  Coefficient  Atom+Function         Bfn.  Coefficient  Atom+Function  
  ----- ------------  ---------------      ----- ------------  ---------------
     2      0.237355  1 C  s                169     -0.198635  4 O  s          
   112     -0.184542  3 O  s                167     -0.183877  4 O  s          
   114     -0.164625  3 O  s                172      0.165089  4 O  py         
   117     -0.163817  3 O  py               175      0.155509  4 O  py         
   120     -0.154149  3 O  py                 8     -0.111722  1 C  pz         

 Vector   18  Occ=1.000000D+00  E=-4.742872D-01
              MO Center=  2.5D-02,  8.9D-03, -4.8D-01, r^2= 2.3D+00
   Bfn.  Coefficient  Atom+Function         Bfn.  Coefficient  Atom+Function  
  ----- ------------  ---------------      ----- ------------  ---------------
     7      0.176576  1 C  py               118      0.156421  3 O  pz         
   121      0.156383  3 O  pz               172     -0.154004  4 O  py         
   112     -0.152987  3 O  s                167      0.149680  4 O  s          
   175     -0.148316  4 O  py               117     -0.142952  3 O  py         
   173     -0.143056  4 O  pz               176     -0.142523  4 O  pz         

 Vector   19  Occ=1.000000D+00  E=-4.608102D-01
              MO Center= -1.5D-02, -9.3D-02,  4.2D-01, r^2= 2.8D+00
   Bfn.  Coefficient  Atom+Function         Bfn.  Coefficient  Atom+Function  
  ----- ------------  ---------------      ----- ------------  ---------------
     6      0.173502  1 C  px               171      0.147097  4 O  px         
     9      0.145660  1 C  px               174      0.145310  4 O  px         
   116      0.137733  3 O  px               119      0.135961  3 O  px         
   338     -0.116010  7 F  pz               341     -0.113242  7 F  pz         
   226     -0.108009  5 F  px               229     -0.105193  5 F  px         

 Vector   20  Occ=1.000000D+00  E=-4.491699D-01
              MO Center= -1.9D-01, -3.8D-01,  1.9D+00, r^2= 2.2D+00
   Bfn.  Coefficient  Atom+Function         Bfn.  Coefficient  Atom+Function  
  ----- ------------  ---------------      ----- ------------  ---------------
   282      0.207338  6 F  py               285      0.202112  6 F  py         
   336      0.173420  7 F  px               339      0.168274  7 F  px         
   337      0.154211  7 F  py               340      0.150896  7 F  py         
   283     -0.150002  6 F  pz               286     -0.147005  6 F  pz         
   288      0.139165  6 F  py               228      0.135942  5 F  pz         

 Vector   21  Occ=1.000000D+00  E=-4.452144D-01
              MO Center=  9.8D-02,  1.9D-01,  1.6D+00, r^2= 2.9D+00
   Bfn.  Coefficient  Atom+Function         Bfn.  Coefficient  Atom+Function  
  ----- ------------  ---------------      ----- ------------  ---------------
   226      0.217474  5 F  px               229      0.211942  5 F  px         
   338      0.154858  7 F  pz               341      0.151877  7 F  pz         
   232      0.139315  5 F  px               336      0.128849  7 F  px         
   339      0.125968  7 F  px               282     -0.110797  6 F  py         
   285     -0.107941  6 F  py               283     -0.107092  6 F  pz         

 Vector   22  Occ=1.000000D+00  E=-4.363947D-01
              MO Center= -6.2D-02,  1.4D-01,  1.3D+00, r^2= 3.1D+00
   Bfn.  Coefficient  Atom+Function         Bfn.  Coefficient  Atom+Function  
  ----- ------------  ---------------      ----- ------------  ---------------
   228      0.219527  5 F  pz               231      0.215251  5 F  pz         
   283      0.171600  6 F  pz               286      0.168120  6 F  pz         
   338      0.146509  7 F  pz               341      0.143332  7 F  pz         
   234      0.136726  5 F  pz                 8      0.135403  1 C  pz         
   176      0.108857  4 O  pz               289      0.108343  6 F  pz         

 Vector   23  Occ=1.000000D+00  E=-4.105869D-01
              MO Center= -1.6D-02,  3.9D-01,  2.0D+00, r^2= 2.1D+00
   Bfn.  Coefficient  Atom+Function         Bfn.  Coefficient  Atom+Function  
  ----- ------------  ---------------      ----- ------------  ---------------
   228     -0.210915  5 F  pz               231     -0.207639  5 F  pz         
   227      0.199189  5 F  py               230      0.195102  5 F  py         
   234     -0.157129  5 F  pz               337      0.140659  7 F  py         
   283      0.139241  6 F  pz               340      0.137898  7 F  py         
   286      0.136981  6 F  pz               233      0.129948  5 F  py         

 Vector   24  Occ=1.000000D+00  E=-4.084334D-01
              MO Center= -1.0D-01, -4.1D-01,  1.8D+00, r^2= 2.3D+00
   Bfn.  Coefficient  Atom+Function         Bfn.  Coefficient  Atom+Function  
  ----- ------------  ---------------      ----- ------------  ---------------
   338      0.204904  7 F  pz               341      0.201490  7 F  pz         
   283     -0.179480  6 F  pz               286     -0.176633  6 F  pz         
   336     -0.176196  7 F  px               339     -0.173254  7 F  px         
   281     -0.162683  6 F  px               284     -0.159782  6 F  px         
   344      0.156622  7 F  pz               289     -0.132825  6 F  pz         

 Vector   25  Occ=1.000000D+00  E=-3.915140D-01
              MO Center= -4.2D-02,  5.3D-02,  2.1D+00, r^2= 2.0D+00
   Bfn.  Coefficient  Atom+Function         Bfn.  Coefficient  Atom+Function  
  ----- ------------  ---------------      ----- ------------  ---------------
   226      0.243534  5 F  px               229      0.240275  5 F  px         
   282      0.241046  6 F  py               285      0.237843  6 F  py         
   336     -0.178072  7 F  px               232      0.177175  5 F  px         
   288      0.176029  6 F  py               339     -0.175831  7 F  px         
   337     -0.159897  7 F  py               340     -0.157636  7 F  py         

 Vector   26  Occ=1.000000D+00  E=-3.321709D-01
              MO Center=  9.6D-03, -4.2D-02, -5.1D-01, r^2= 1.9D+00
   Bfn.  Coefficient  Atom+Function         Bfn.  Coefficient  Atom+Function  
  ----- ------------  ---------------      ----- ------------  ---------------
   119      0.253415  3 O  px               116      0.249545  3 O  px         
   174     -0.238793  4 O  px               171     -0.235248  4 O  px         
   175      0.157130  4 O  py               172      0.154882  4 O  py         
   122      0.153023  3 O  px               177     -0.142928  4 O  px         
   120     -0.119033  3 O  py               117     -0.117588  3 O  py         

 Vector   27  Occ=1.000000D+00  E=-3.311895D-01
              MO Center= -7.5D-02, -1.5D-01,  7.8D-02, r^2= 2.7D+00
   Bfn.  Coefficient  Atom+Function         Bfn.  Coefficient  Atom+Function  
  ----- ------------  ---------------      ----- ------------  ---------------
   176      0.264169  4 O  pz               173      0.259527  4 O  pz         
    59      0.231548  2 C  s                121      0.215519  3 O  pz         
   118      0.209804  3 O  pz                66      0.202275  2 C  pz         
   179      0.168299  4 O  pz                63      0.157740  2 C  pz         
    57     -0.138099  2 C  s                  4     -0.134282  1 C  s          

 Vector   28  Occ=1.000000D+00  E=-3.277862D-01
              MO Center=  8.6D-02,  1.5D-01, -3.8D-01, r^2= 2.2D+00
   Bfn.  Coefficient  Atom+Function         Bfn.  Coefficient  Atom+Function  
  ----- ------------  ---------------      ----- ------------  ---------------
   121      0.244369  3 O  pz               118      0.239515  3 O  pz         
   176     -0.189460  4 O  pz               120      0.185502  3 O  py         
   173     -0.185488  4 O  pz               117      0.179872  3 O  py         
   124      0.157406  3 O  pz               175      0.141345  4 O  py         
   172      0.136603  4 O  py               174      0.122509  4 O  px         

 Vector   29  Occ=0.000000D+00  E=-1.091883D-01
              MO Center= -4.4D-03, -8.0D-03,  1.5D-01, r^2= 2.2D+00
   Bfn.  Coefficient  Atom+Function         Bfn.  Coefficient  Atom+Function  
  ----- ------------  ---------------      ----- ------------  ---------------
     9      0.270797  1 C  px                 6      0.247194  1 C  px         
    12      0.244047  1 C  px               119     -0.181247  3 O  px         
   122     -0.178045  3 O  px               174     -0.174704  4 O  px         
   116     -0.173440  3 O  px               335      0.173742  7 F  s          
   177     -0.169649  4 O  px               171     -0.166695  4 O  px         

 Vector   30  Occ=0.000000D+00  E=-1.281751D-02
              MO Center=  6.8D-02,  1.7D-01,  8.1D-01, r^2= 1.1D+01
   Bfn.  Coefficient  Atom+Function         Bfn.  Coefficient  Atom+Function  
  ----- ------------  ---------------      ----- ------------  ---------------
     5      3.630355  1 C  s                  4      2.548546  1 C  s          
   115     -2.132972  3 O  s                170     -1.959929  4 O  s          
    69      0.926387  2 C  pz               335     -0.700246  7 F  s          
   280     -0.685364  6 F  s                 72      0.546067  2 C  pz         
   114     -0.535350  3 O  s                225     -0.462659  5 F  s          

 Vector   31  Occ=0.000000D+00  E= 1.405550D-03
              MO Center= -1.8D-01, -1.3D-01,  1.5D+00, r^2= 5.6D+00
   Bfn.  Coefficient  Atom+Function         Bfn.  Coefficient  Atom+Function  
  ----- ------------  ---------------      ----- ------------  ---------------
     5      0.896114  1 C  s                170     -0.587787  4 O  s          
    71     -0.554784  2 C  py                60     -0.415159  2 C  s          
    70     -0.318735  2 C  px                 4      0.315015  1 C  s          
    65     -0.271143  2 C  py                62     -0.269782  2 C  py         
    72      0.268100  2 C  pz               280     -0.264059  6 F  s          

 Vector   32  Occ=0.000000D+00  E= 7.873599D-03
              MO Center=  6.2D-04,  6.9D-02,  9.5D-01, r^2= 1.5D+01
   Bfn.  Coefficient  Atom+Function         Bfn.  Coefficient  Atom+Function  
  ----- ------------  ---------------      ----- ------------  ---------------
    60     -6.332244  2 C  s                  5      6.059398  1 C  s          
    72      2.088310  2 C  pz                17      2.076563  1 C  pz         
    85      0.882116  2 C  dxx               88      0.846098  2 C  dyy        
    90      0.802832  2 C  dzz               59      0.623272  2 C  s          
   225     -0.596621  5 F  s                 30     -0.577787  1 C  dxx        

 Vector   33  Occ=0.000000D+00  E= 2.138776D-02
              MO Center= -2.1D-02, -7.9D-02,  1.1D+00, r^2= 1.3D+01
   Bfn.  Coefficient  Atom+Function         Bfn.  Coefficient  Atom+Function  
  ----- ------------  ---------------      ----- ------------  ---------------
   335      1.114946  7 F  s                 70     -0.926792  2 C  px         
    67     -0.837099  2 C  px               280     -0.816467  6 F  s          
    68      0.504289  2 C  py                71      0.503044  2 C  py         
    15     -0.477159  1 C  px                16      0.283852  1 C  py         
    12      0.248614  1 C  px               347     -0.211086  7 F  pz         

 Vector   34  Occ=0.000000D+00  E= 3.913647D-02
              MO Center= -4.9D-02, -2.3D-01,  8.2D-01, r^2= 1.3D+01
   Bfn.  Coefficient  Atom+Function         Bfn.  Coefficient  Atom+Function  
  ----- ------------  ---------------      ----- ------------  ---------------
   170      2.161705  4 O  s                115     -1.489195  3 O  s          
    71      0.945685  2 C  py                16      0.925519  1 C  py         
     5     -0.868290  1 C  s                 60      0.705130  2 C  s          
    13      0.569049  1 C  py                70      0.538275  2 C  px         
    15      0.512099  1 C  px                34     -0.429154  1 C  dyz        

 Vector   35  Occ=0.000000D+00  E= 5.251029D-02
              MO Center= -1.9D-02, -1.0D-01,  3.3D-01, r^2= 9.9D+00
   Bfn.  Coefficient  Atom+Function         Bfn.  Coefficient  Atom+Function  
  ----- ------------  ---------------      ----- ------------  ---------------
    15      2.020254  1 C  px                70     -1.354002  2 C  px         
    16     -1.123310  1 C  py                71      0.768632  2 C  py         
   180     -0.444302  4 O  px                 4      0.366659  1 C  s          
    86     -0.362309  2 C  dxy              125     -0.335853  3 O  px         
   235      0.298551  5 F  px               115     -0.280441  3 O  s          

 Vector   36  Occ=0.000000D+00  E= 5.390509D-02
              MO Center=  1.7D-03,  5.2D-02,  1.6D-01, r^2= 1.8D+01
   Bfn.  Coefficient  Atom+Function         Bfn.  Coefficient  Atom+Function  
  ----- ------------  ---------------      ----- ------------  ---------------
    17      3.523059  1 C  pz                 5      3.303756  1 C  s          
    60     -2.710771  2 C  s                 59      2.596871  2 C  s          
    72     -2.044439  2 C  pz                 4     -1.365764  1 C  s          
    69     -1.280184  2 C  pz                35     -0.921571  1 C  dzz        
    30     -0.668372  1 C  dxx              127     -0.598439  3 O  pz         

 Vector   37  Occ=0.000000D+00  E= 6.013124D-02
              MO Center= -1.7D-01, -3.1D-01,  8.7D-01, r^2= 1.9D+01
   Bfn.  Coefficient  Atom+Function         Bfn.  Coefficient  Atom+Function  
  ----- ------------  ---------------      ----- ------------  ---------------
     5      3.236047  1 C  s                 60     -3.207619  2 C  s          
    16      3.158336  1 C  py                71     -3.031086  2 C  py         
    15      1.697409  1 C  px                70     -1.682692  2 C  px         
   115     -1.617401  3 O  s                170      1.350895  4 O  s          
   225      1.087252  5 F  s                 72      0.900067  2 C  pz         

 Vector   38  Occ=0.000000D+00  E= 6.262182D-02
              MO Center=  1.6D-01,  2.4D-01,  1.3D+00, r^2= 1.0D+01
   Bfn.  Coefficient  Atom+Function         Bfn.  Coefficient  Atom+Function  
  ----- ------------  ---------------      ----- ------------  ---------------
     5     12.615073  1 C  s                 60    -12.318041  2 C  s          
    72      3.267741  2 C  pz                17      2.908989  1 C  pz         
     4     -1.835357  1 C  s                 35     -1.545701  1 C  dzz        
    69     -1.045778  2 C  pz               225      0.970935  5 F  s          
    30     -0.944611  1 C  dxx               90      0.911410  2 C  dzz        

 Vector   39  Occ=0.000000D+00  E= 6.739942D-02
              MO Center= -4.4D-02,  3.2D-01,  1.4D+00, r^2= 1.2D+01
   Bfn.  Coefficient  Atom+Function         Bfn.  Coefficient  Atom+Function  
  ----- ------------  ---------------      ----- ------------  ---------------
    70      2.480958  2 C  px                15     -1.789517  1 C  px         
    71     -1.356978  2 C  py                16      0.983407  1 C  py         
   280      0.446303  6 F  s                  4      0.434622  1 C  s          
   290     -0.423445  6 F  px                59     -0.418112  2 C  s          
   346      0.394407  7 F  py                32     -0.356855  1 C  dxz        

 Vector   40  Occ=0.000000D+00  E= 8.602703D-02
              MO Center=  5.3D-02, -5.5D-03,  1.9D-02, r^2= 1.4D+01
   Bfn.  Coefficient  Atom+Function         Bfn.  Coefficient  Atom+Function  
  ----- ------------  ---------------      ----- ------------  ---------------
     4     12.902238  1 C  s                 59     -9.159302  2 C  s          
   170     -6.574840  4 O  s                115     -5.677204  3 O  s          
     5      4.291530  1 C  s                 35      4.221856  1 C  dzz        
    69      3.777928  2 C  pz                33      3.214025  1 C  dyy        
    60     -2.655473  2 C  s                 14      2.641948  1 C  pz         

 Vector   41  Occ=0.000000D+00  E= 9.612762D-02
              MO Center= -2.1D-01, -1.3D-01,  5.5D-01, r^2= 1.2D+01
   Bfn.  Coefficient  Atom+Function         Bfn.  Coefficient  Atom+Function  
  ----- ------------  ---------------      ----- ------------  ---------------
   280      2.832363  6 F  s                335     -1.965564  7 F  s          
    67      1.949566  2 C  px                87      1.743995  2 C  dxz        
   290      1.364345  6 F  px               125     -1.042520  3 O  px         
   180      0.973463  4 O  px               346     -0.909423  7 F  py         
    12      0.789992  1 C  px               225     -0.738679  5 F  s          

 Vector   42  Occ=0.000000D+00  E= 1.122224D-01
              MO Center=  2.7D-02,  2.6D-01,  1.4D+00, r^2= 5.3D+00
   Bfn.  Coefficient  Atom+Function         Bfn.  Coefficient  Atom+Function  
  ----- ------------  ---------------      ----- ------------  ---------------
    60      8.062079  2 C  s                  5     -3.920739  1 C  s          
     4      2.759553  1 C  s                 90     -2.052277  2 C  dzz        
    72     -1.797632  2 C  pz                59     -1.154268  2 C  s          
    85     -1.117290  2 C  dxx               88     -1.045808  2 C  dyy        
   335     -0.970499  7 F  s                 14      0.840912  1 C  pz         

 Vector   43  Occ=0.000000D+00  E= 1.294808D-01
              MO Center=  5.6D-02, -1.3D-01,  6.7D-01, r^2= 1.3D+01
   Bfn.  Coefficient  Atom+Function         Bfn.  Coefficient  Atom+Function  
  ----- ------------  ---------------      ----- ------------  ---------------
    60    -20.775685  2 C  s                  5     20.131433  1 C  s          
     4     -6.997364  1 C  s                 72      4.199619  2 C  pz         
    17      3.240364  1 C  pz               335      3.132341  7 F  s          
    69     -3.005052  2 C  pz                35     -2.918752  1 C  dzz        
    33     -2.530690  1 C  dyy               30     -2.497340  1 C  dxx        

 Vector   44  Occ=0.000000D+00  E= 1.312812D-01
              MO Center=  1.1D-01, -2.0D-01,  1.2D+00, r^2= 1.6D+01
   Bfn.  Coefficient  Atom+Function         Bfn.  Coefficient  Atom+Function  
  ----- ------------  ---------------      ----- ------------  ---------------
     5     26.466201  1 C  s                 60    -24.416140  2 C  s          
   115     -9.593720  3 O  s                170     -6.915706  4 O  s          
     4      5.436698  1 C  s                 17      5.016931  1 C  pz         
    72      4.570183  2 C  pz               225      3.263724  5 F  s          
    14     -2.592136  1 C  pz               126      2.406466  3 O  py         

 Vector   45  Occ=0.000000D+00  E= 1.388672D-01
              MO Center= -6.2D-02, -5.2D-02,  1.1D-01, r^2= 1.5D+01
   Bfn.  Coefficient  Atom+Function         Bfn.  Coefficient  Atom+Function  
  ----- ------------  ---------------      ----- ------------  ---------------
    34      3.221459  1 C  dyz              182      2.412478  4 O  pz         
   115      2.080519  3 O  s                  5     -2.041972  1 C  s          
    32      1.818404  1 C  dxz              127     -1.691114  3 O  pz         
    60      1.629446  2 C  s                 71      1.318621  2 C  py         
    16     -1.181908  1 C  py               179      1.113601  4 O  pz         

 Vector   46  Occ=0.000000D+00  E= 1.469528D-01
              MO Center= -2.0D-01,  1.7D-01,  1.8D+00, r^2= 1.4D+01
   Bfn.  Coefficient  Atom+Function         Bfn.  Coefficient  Atom+Function  
  ----- ------------  ---------------      ----- ------------  ---------------
    59     13.440087  2 C  s                 60     -9.391347  2 C  s          
     5      8.985712  1 C  s                225     -6.432724  5 F  s          
   280     -5.980981  6 F  s                 85      5.142480  2 C  dxx        
    90      4.823860  2 C  dzz              335     -4.798419  7 F  s          
    88      4.764240  2 C  dyy                4     -3.847316  1 C  s          

 Vector   47  Occ=0.000000D+00  E= 1.486443D-01
              MO Center= -6.8D-02, -1.5D-01,  9.5D-01, r^2= 1.5D+01
   Bfn.  Coefficient  Atom+Function         Bfn.  Coefficient  Atom+Function  
  ----- ------------  ---------------      ----- ------------  ---------------
    67      2.894773  2 C  px               280      2.691777  6 F  s          
   335     -2.389836  7 F  s                290      1.609558  6 F  px         
   180     -1.363433  4 O  px               346     -1.296220  7 F  py         
   225     -1.061157  5 F  s                 87      1.052787  2 C  dxz        
    59      1.043590  2 C  s                 31     -0.982466  1 C  dxy        

 Vector   48  Occ=0.000000D+00  E= 1.624028D-01
              MO Center= -1.7D-01, -4.8D-01,  1.2D+00, r^2= 1.3D+01
   Bfn.  Coefficient  Atom+Function         Bfn.  Coefficient  Atom+Function  
  ----- ------------  ---------------      ----- ------------  ---------------
    67      2.526725  2 C  px                86     -2.185171  2 C  dxy        
    87     -2.104570  2 C  dxz              347      1.963472  7 F  pz         
    68     -1.859915  2 C  py               335     -1.821182  7 F  s          
   292     -1.776237  6 F  pz                12     -1.534611  1 C  px         
   280      1.467825  6 F  s                 70     -1.404317  2 C  px         

 Vector   49  Occ=0.000000D+00  E= 1.693020D-01
              MO Center=  7.1D-02,  2.1D-02, -1.7D-01, r^2= 1.5D+01
   Bfn.  Coefficient  Atom+Function         Bfn.  Coefficient  Atom+Function  
  ----- ------------  ---------------      ----- ------------  ---------------
   170     -5.666971  4 O  s                  5      5.242440  1 C  s          
     4      5.164396  1 C  s                 60     -4.447799  2 C  s          
    34      3.172481  1 C  dyz               15      3.013066  1 C  px         
    16      2.939864  1 C  py                17      2.932818  1 C  pz         
   181     -2.903661  4 O  py               115      2.705795  3 O  s          

 Vector   50  Occ=0.000000D+00  E= 1.734905D-01
              MO Center= -3.5D-01,  4.2D-01, -6.6D-02, r^2= 1.4D+01
   Bfn.  Coefficient  Atom+Function         Bfn.  Coefficient  Atom+Function  
  ----- ------------  ---------------      ----- ------------  ---------------
     5      6.511722  1 C  s                  4      6.302311  1 C  s          
   170     -4.904848  4 O  s                 16      3.478710  1 C  py         
    60     -3.068670  2 C  s                 59     -2.553183  2 C  s          
   181     -2.533308  4 O  py                15     -2.193531  1 C  px         
   126     -2.157507  3 O  py               115     -1.988707  3 O  s          

 Vector   51  Occ=0.000000D+00  E= 1.741185D-01
              MO Center=  4.1D-01,  1.9D-01, -7.6D-01, r^2= 1.2D+01
   Bfn.  Coefficient  Atom+Function         Bfn.  Coefficient  Atom+Function  
  ----- ------------  ---------------      ----- ------------  ---------------
     5      9.281376  1 C  s                170     -5.213124  4 O  s          
   115     -4.412580  3 O  s                 59      3.362672  2 C  s          
    14     -2.714151  1 C  pz                60     -2.575716  2 C  s          
    69     -1.960066  2 C  pz               280      1.876699  6 F  s          
    17     -1.750142  1 C  pz               127      1.744729  3 O  pz         

 Vector   52  Occ=0.000000D+00  E= 1.948114D-01
              MO Center=  1.9D-01,  5.5D-02,  6.1D-01, r^2= 1.6D+01
   Bfn.  Coefficient  Atom+Function         Bfn.  Coefficient  Atom+Function  
  ----- ------------  ---------------      ----- ------------  ---------------
   115      8.946499  3 O  s                  5     -7.018541  1 C  s          
    17     -4.903379  1 C  pz                69      3.569033  2 C  pz         
    60      3.235056  2 C  s                127      2.753415  3 O  pz         
   225     -2.428144  5 F  s                  4     -2.241934  1 C  s          
   182      2.249228  4 O  pz                31     -2.207562  1 C  dxy        

 Vector   53  Occ=0.000000D+00  E= 1.955342D-01
              MO Center= -1.4D-01, -3.3D-01,  7.9D-01, r^2= 1.7D+01
   Bfn.  Coefficient  Atom+Function         Bfn.  Coefficient  Atom+Function  
  ----- ------------  ---------------      ----- ------------  ---------------
     5      8.399814  1 C  s                170     -8.071795  4 O  s          
    60     -4.749579  2 C  s                 17      4.596427  1 C  pz         
    69     -3.271857  2 C  pz                59      2.679963  2 C  s          
   182     -2.298287  4 O  pz                14     -2.209064  1 C  pz         
    31      2.154001  1 C  dxy               71     -1.953949  2 C  py         

 Vector   54  Occ=0.000000D+00  E= 2.073842D-01
              MO Center=  1.5D-01, -2.5D-01,  2.0D+00, r^2= 1.3D+01
   Bfn.  Coefficient  Atom+Function         Bfn.  Coefficient  Atom+Function  
  ----- ------------  ---------------      ----- ------------  ---------------
    59      8.186372  2 C  s                  4     -5.969175  1 C  s          
    60     -3.059664  2 C  s                 90      2.930058  2 C  dzz        
    69     -2.678413  2 C  pz               280     -2.614441  6 F  s          
   345      2.415567  7 F  px                14     -2.391531  1 C  pz         
    70     -2.082301  2 C  px                85      2.078149  2 C  dxx        

 Vector   55  Occ=0.000000D+00  E= 2.136535D-01
              MO Center= -1.3D-02,  6.5D-01,  1.4D+00, r^2= 1.7D+01
   Bfn.  Coefficient  Atom+Function         Bfn.  Coefficient  Atom+Function  
  ----- ------------  ---------------      ----- ------------  ---------------
    59      6.372001  2 C  s                225     -5.732092  5 F  s          
    71     -5.555447  2 C  py                16      5.515988  1 C  py         
     5     -4.556376  1 C  s                 88      3.953976  2 C  dyy        
    68      3.738520  2 C  py               237      3.744294  5 F  pz         
   170      3.166282  4 O  s                 15      2.989337  1 C  px         

 Vector   56  Occ=0.000000D+00  E= 2.206330D-01
              MO Center= -5.1D-01, -4.6D-01,  1.8D+00, r^2= 1.5D+01
   Bfn.  Coefficient  Atom+Function         Bfn.  Coefficient  Atom+Function  
  ----- ------------  ---------------      ----- ------------  ---------------
    59     16.612295  2 C  s                  4    -11.741673  1 C  s          
    60     -7.865651  2 C  s                 90      5.181278  2 C  dzz        
   115      4.906899  3 O  s                 85      4.767259  2 C  dxx        
   280     -4.517378  6 F  s                335     -4.277591  7 F  s          
    88      4.153795  2 C  dyy              225     -3.857998  5 F  s          

 Vector   57  Occ=0.000000D+00  E= 2.238832D-01
              MO Center=  1.6D-01,  2.6D-01,  1.5D+00, r^2= 1.5D+01
   Bfn.  Coefficient  Atom+Function         Bfn.  Coefficient  Atom+Function  
  ----- ------------  ---------------      ----- ------------  ---------------
    70      3.914453  2 C  px                15     -3.395168  1 C  px         
    59     -3.387184  2 C  s                 71     -2.826034  2 C  py         
   235     -2.636652  5 F  px               346      2.243190  7 F  py         
   335      1.966826  7 F  s                 32     -1.540612  1 C  dxz        
   180      1.508162  4 O  px                16      1.487096  1 C  py         

 Vector   58  Occ=0.000000D+00  E= 2.380829D-01
              MO Center= -3.2D-01, -3.8D-01,  4.3D-01, r^2= 1.2D+01
   Bfn.  Coefficient  Atom+Function         Bfn.  Coefficient  Atom+Function  
  ----- ------------  ---------------      ----- ------------  ---------------
   170     12.391342  4 O  s                  4     -9.606618  1 C  s          
   115      7.034149  3 O  s                 33     -6.513410  1 C  dyy        
    30     -5.053752  1 C  dxx               60     -3.598248  2 C  s          
   182      2.971083  4 O  pz                14      2.699312  1 C  pz         
   127      2.696882  3 O  pz                31     -2.508944  1 C  dxy        

 Vector   59  Occ=0.000000D+00  E= 2.481651D-01
              MO Center=  3.6D-01,  7.7D-01,  1.1D+00, r^2= 1.3D+01
   Bfn.  Coefficient  Atom+Function         Bfn.  Coefficient  Atom+Function  
  ----- ------------  ---------------      ----- ------------  ---------------
   115     11.139564  3 O  s                 33     -3.716814  1 C  dyy        
   127      3.579943  3 O  pz                 5     -3.545962  1 C  s          
   170      3.247139  4 O  s                 13     -3.066056  1 C  py         
    14      3.023098  1 C  pz                30     -2.964225  1 C  dxx        
    69      2.781866  2 C  pz               335     -2.646279  7 F  s          

 Vector   60  Occ=0.000000D+00  E= 2.648318D-01
              MO Center= -5.1D-02, -7.1D-02,  6.9D-01, r^2= 9.7D+00
   Bfn.  Coefficient  Atom+Function         Bfn.  Coefficient  Atom+Function  
  ----- ------------  ---------------      ----- ------------  ---------------
    60     23.165260  2 C  s                  4     16.920275  1 C  s          
     5    -14.825803  1 C  s                 59    -14.587587  2 C  s          
    90     -9.276285  2 C  dzz               14      8.445123  1 C  pz         
    69      6.473905  2 C  pz                85     -6.333777  2 C  dxx        
    88     -5.740864  2 C  dyy               35      3.923198  1 C  dzz        

 Vector   61  Occ=0.000000D+00  E= 2.754628D-01
              MO Center=  1.7D-01, -2.6D-03,  1.4D+00, r^2= 1.0D+01
   Bfn.  Coefficient  Atom+Function         Bfn.  Coefficient  Atom+Function  
  ----- ------------  ---------------      ----- ------------  ---------------
   335      7.209226  7 F  s                280     -5.546841  6 F  s          
    67     -3.920218  2 C  px                68      3.532471  2 C  py         
    86      3.548645  2 C  dxy               60     -2.944800  2 C  s          
   225     -2.675005  5 F  s                290     -2.466268  6 F  px         
    32      2.111057  1 C  dxz              345     -2.121202  7 F  px         

 Vector   62  Occ=0.000000D+00  E= 2.898113D-01
              MO Center= -1.4D-01,  2.9D-01,  7.5D-01, r^2= 9.0D+00
   Bfn.  Coefficient  Atom+Function         Bfn.  Coefficient  Atom+Function  
  ----- ------------  ---------------      ----- ------------  ---------------
    60      5.973902  2 C  s                  4     -5.107405  1 C  s          
     5     -4.276173  1 C  s                 87     -3.591809  2 C  dxz        
    69     -3.406694  2 C  pz               335      3.379474  7 F  s          
    67      2.893617  2 C  px                32     -2.493965  1 C  dxz        
    88     -2.498971  2 C  dyy              115      2.327483  3 O  s          

 Vector   63  Occ=0.000000D+00  E= 2.953773D-01
              MO Center= -2.9D-01, -4.7D-01,  9.7D-01, r^2= 1.1D+01
   Bfn.  Coefficient  Atom+Function         Bfn.  Coefficient  Atom+Function  
  ----- ------------  ---------------      ----- ------------  ---------------
     4     11.168877  1 C  s                 59     -9.334235  2 C  s          
    69      7.679057  2 C  pz               335     -6.974695  7 F  s          
    60     -6.085920  2 C  s                280      5.750517  6 F  s          
    14      5.616894  1 C  pz                 5      3.720634  1 C  s          
    67      3.449915  2 C  px                35      3.130210  1 C  dzz        

 Vector   64  Occ=0.000000D+00  E= 3.041274D-01
              MO Center=  2.3D-01, -2.9D-01, -2.1D-01, r^2= 1.2D+01
   Bfn.  Coefficient  Atom+Function         Bfn.  Coefficient  Atom+Function  
  ----- ------------  ---------------      ----- ------------  ---------------
    59    -31.542702  2 C  s                  4     31.110530  1 C  s          
    14     15.355669  1 C  pz                69     15.074442  2 C  pz         
    35     12.732578  1 C  dzz               90     -8.652184  2 C  dzz        
   170     -7.901965  4 O  s                115     -7.140035  3 O  s          
    60      6.852561  2 C  s                335      6.852742  7 F  s          

 Vector   65  Occ=0.000000D+00  E= 3.111373D-01
              MO Center= -2.1D-01, -1.2D-01,  4.1D-01, r^2= 1.1D+01
   Bfn.  Coefficient  Atom+Function         Bfn.  Coefficient  Atom+Function  
  ----- ------------  ---------------      ----- ------------  ---------------
    59      9.191388  2 C  s                170      8.593236  4 O  s          
    35     -7.702053  1 C  dzz               60     -7.184110  2 C  s          
     5      6.308632  1 C  s                  4     -5.849356  1 C  s          
   280     -5.169376  6 F  s                115      4.657106  3 O  s          
    85      4.059384  2 C  dxx               30     -3.697564  1 C  dxx        

 Vector   66  Occ=0.000000D+00  E= 3.226956D-01
              MO Center=  2.9D-01,  2.3D-01,  1.3D+00, r^2= 1.2D+01
   Bfn.  Coefficient  Atom+Function         Bfn.  Coefficient  Atom+Function  
  ----- ------------  ---------------      ----- ------------  ---------------
     4     18.036550  1 C  s                225     16.558123  5 F  s          
   115    -12.352555  3 O  s                 59     -9.728279  2 C  s          
    68     -8.509664  2 C  py               280     -7.383228  6 F  s          
    33      6.785871  1 C  dyy               88     -5.395450  2 C  dyy        
   170     -5.199813  4 O  s                236     -5.045225  5 F  py         

 Vector   67  Occ=0.000000D+00  E= 3.455851D-01
              MO Center= -1.0D-02,  8.3D-02,  4.3D-01, r^2= 1.2D+01
   Bfn.  Coefficient  Atom+Function         Bfn.  Coefficient  Atom+Function  
  ----- ------------  ---------------      ----- ------------  ---------------
     5     40.120374  1 C  s                 60    -38.477965  2 C  s          
   115    -13.416957  3 O  s                170    -10.684205  4 O  s          
     4     10.354328  1 C  s                 85      9.279097  2 C  dxx        
    88      8.979273  2 C  dyy               90      7.777360  2 C  dzz        
    17      6.025106  1 C  pz               280     -5.320938  6 F  s          

 Vector   68  Occ=0.000000D+00  E= 3.733974D-01
              MO Center= -2.2D-01, -7.4D-01,  9.1D-01, r^2= 9.1D+00
   Bfn.  Coefficient  Atom+Function         Bfn.  Coefficient  Atom+Function  
  ----- ------------  ---------------      ----- ------------  ---------------
    59     13.467519  2 C  s                170     -8.625686  4 O  s          
    14     -6.208626  1 C  pz               335     -5.531029  7 F  s          
   115     -5.362510  3 O  s                 89      4.395290  2 C  dyz        
     5      4.001119  1 C  s                 33      3.927341  1 C  dyy        
    68     -3.797188  2 C  py               182     -3.400679  4 O  pz         

 Vector   69  Occ=0.000000D+00  E= 3.813755D-01
              MO Center= -2.6D-01, -1.6D-01,  1.6D+00, r^2= 8.6D+00
   Bfn.  Coefficient  Atom+Function         Bfn.  Coefficient  Atom+Function  
  ----- ------------  ---------------      ----- ------------  ---------------
   280      7.087273  6 F  s                 87     -5.538929  2 C  dxz        
    67      3.012297  2 C  px               225      3.010292  5 F  s          
     4     -2.963409  1 C  s                 59     -2.815547  2 C  s          
   290      2.661619  6 F  px                31     -2.617498  1 C  dxy        
   292     -2.456349  6 F  pz                85     -2.386146  2 C  dxx        

 Vector   70  Occ=0.000000D+00  E= 3.850575D-01
              MO Center= -1.7D-02, -3.5D-03,  1.2D+00, r^2= 9.0D+00
   Bfn.  Coefficient  Atom+Function         Bfn.  Coefficient  Atom+Function  
  ----- ------------  ---------------      ----- ------------  ---------------
    59     24.229134  2 C  s                225    -13.240131  5 F  s          
   280    -10.927987  6 F  s                  5    -10.544898  1 C  s          
   335    -10.364350  7 F  s                 60     10.198453  2 C  s          
     4     -7.132192  1 C  s                 88      6.724873  2 C  dyy        
    90      6.754233  2 C  dzz               85      5.699212  2 C  dxx        

 Vector   71  Occ=0.000000D+00  E= 3.975332D-01
              MO Center= -1.3D-01,  2.8D-01,  8.9D-01, r^2= 8.9D+00
   Bfn.  Coefficient  Atom+Function         Bfn.  Coefficient  Atom+Function  
  ----- ------------  ---------------      ----- ------------  ---------------
    59     15.909799  2 C  s                280    -13.053257  6 F  s          
   225    -12.312436  5 F  s                335    -11.619463  7 F  s          
     4     -9.354462  1 C  s                 85      9.085686  2 C  dxx        
   170      8.685677  4 O  s                 88      7.523091  2 C  dyy        
   115      7.538262  3 O  s                 90      7.173837  2 C  dzz        

 Vector   72  Occ=0.000000D+00  E= 4.089484D-01
              MO Center= -2.4D-05,  2.5D-01,  1.4D+00, r^2= 8.6D+00
   Bfn.  Coefficient  Atom+Function         Bfn.  Coefficient  Atom+Function  
  ----- ------------  ---------------      ----- ------------  ---------------
     4      7.130700  1 C  s                 89     -6.891819  2 C  dyz        
    59     -6.020405  2 C  s                225      4.644084  5 F  s          
    87     -4.569034  2 C  dxz              115     -4.206858  3 O  s          
    86      3.693800  2 C  dxy               60      2.974725  2 C  s          
    90     -2.896002  2 C  dzz               33      2.801332  1 C  dyy        

 Vector   73  Occ=0.000000D+00  E= 4.230722D-01
              MO Center=  2.8D-01,  1.8D-01,  3.7D-01, r^2= 9.1D+00
   Bfn.  Coefficient  Atom+Function         Bfn.  Coefficient  Atom+Function  
  ----- ------------  ---------------      ----- ------------  ---------------
   280      8.951816  6 F  s                335     -7.742887  7 F  s          
    12      7.193686  1 C  px                87      7.016941  2 C  dxz        
    32      4.811719  1 C  dxz               85     -3.450981  2 C  dxx        
    86     -3.205985  2 C  dxy               88      3.063844  2 C  dyy        
    33     -2.638476  1 C  dyy               30      2.404792  1 C  dxx        

 Vector   74  Occ=0.000000D+00  E= 4.395558D-01
              MO Center= -2.4D-01,  2.3D-01,  1.0D+00, r^2= 1.1D+01
   Bfn.  Coefficient  Atom+Function         Bfn.  Coefficient  Atom+Function  
  ----- ------------  ---------------      ----- ------------  ---------------
    34     10.917045  1 C  dyz              225    -10.262480  5 F  s          
   280     10.186882  6 F  s                 89      8.283023  2 C  dyz        
    87      7.327457  2 C  dxz               32      6.646859  1 C  dxz        
   115      5.237264  3 O  s                170     -5.191265  4 O  s          
    59      4.626787  2 C  s                 13      4.567455  1 C  py         

 Vector   75  Occ=0.000000D+00  E= 4.432834D-01
              MO Center= -2.1D-01, -7.9D-02,  1.1D+00, r^2= 1.1D+01
   Bfn.  Coefficient  Atom+Function         Bfn.  Coefficient  Atom+Function  
  ----- ------------  ---------------      ----- ------------  ---------------
    89     10.657934  2 C  dyz               34     10.592669  1 C  dyz        
   335      9.714202  7 F  s                225     -7.954943  5 F  s          
     4     -7.573350  1 C  s                 59      7.563835  2 C  s          
   115      5.854956  3 O  s                 13      5.658074  1 C  py         
    67     -4.702873  2 C  px                33     -3.336513  1 C  dyy        

 Vector   76  Occ=0.000000D+00  E= 4.460711D-01
              MO Center=  1.1D-01,  2.0D-01,  6.5D-02, r^2= 9.4D+00
   Bfn.  Coefficient  Atom+Function         Bfn.  Coefficient  Atom+Function  
  ----- ------------  ---------------      ----- ------------  ---------------
     4     16.899818  1 C  s                170    -15.093718  4 O  s          
    13    -11.050270  1 C  py                34      9.065415  1 C  dyz        
   169     -7.481799  4 O  s                  5      7.290942  1 C  s          
    31      6.341589  1 C  dxy               59     -5.618006  2 C  s          
    12     -5.561937  1 C  px                33      5.293895  1 C  dyy        

 Vector   77  Occ=0.000000D+00  E= 4.682315D-01
              MO Center= -1.5D-02, -3.3D-01,  1.0D+00, r^2= 1.0D+01
   Bfn.  Coefficient  Atom+Function         Bfn.  Coefficient  Atom+Function  
  ----- ------------  ---------------      ----- ------------  ---------------
     4     19.221181  1 C  s                115    -15.813656  3 O  s          
    59    -13.537688  2 C  s                335     11.169651  7 F  s          
   280     10.455795  6 F  s                  5      9.620822  1 C  s          
    31      9.388517  1 C  dxy               13      8.766231  1 C  py         
    33      8.353243  1 C  dyy               88     -6.834840  2 C  dyy        

 Vector   78  Occ=0.000000D+00  E= 4.852850D-01
              MO Center= -9.7D-03, -1.7D-01,  2.7D-01, r^2= 7.2D+00
   Bfn.  Coefficient  Atom+Function         Bfn.  Coefficient  Atom+Function  
  ----- ------------  ---------------      ----- ------------  ---------------
    67     13.413961  2 C  px                12     -7.267538  1 C  px         
    68     -7.192477  2 C  py               335     -5.650560  7 F  s          
    32     -5.531003  1 C  dxz               86     -4.618819  2 C  dxy        
     4     -4.363422  1 C  s                 87     -4.378454  2 C  dxz        
   280      3.015564  6 F  s                104     -2.583415  2 C  fxyy       

 Vector   79  Occ=0.000000D+00  E= 5.126660D-01
              MO Center= -6.9D-02,  5.0D-02,  8.6D-01, r^2= 9.0D+00
   Bfn.  Coefficient  Atom+Function         Bfn.  Coefficient  Atom+Function  
  ----- ------------  ---------------      ----- ------------  ---------------
     4     27.035427  1 C  s                 69     10.297067  2 C  pz         
    31     10.101210  1 C  dxy               14     -8.684719  1 C  pz         
    33      7.463075  1 C  dyy              115     -7.471382  3 O  s          
   170     -6.857433  4 O  s                114     -5.726354  3 O  s          
    13     -5.524139  1 C  py                89     -5.105250  2 C  dyz        

 Vector   80  Occ=0.000000D+00  E= 5.397265D-01
              MO Center=  2.3D-01,  4.5D-01,  2.1D-01, r^2= 7.3D+00
   Bfn.  Coefficient  Atom+Function         Bfn.  Coefficient  Atom+Function  
  ----- ------------  ---------------      ----- ------------  ---------------
    68     14.157482  2 C  py               225    -13.642468  5 F  s          
    14     10.828332  1 C  pz                 5    -10.334799  1 C  s          
    60      8.722243  2 C  s                 13     -8.360609  1 C  py         
    86      8.043089  2 C  dxy              115      8.068049  3 O  s          
    31     -7.902439  1 C  dxy                4     -6.492412  1 C  s          

 Vector   81  Occ=0.000000D+00  E= 5.635741D-01
              MO Center= -7.9D-02, -4.6D-02, -8.2D-02, r^2= 8.6D+00
   Bfn.  Coefficient  Atom+Function         Bfn.  Coefficient  Atom+Function  
  ----- ------------  ---------------      ----- ------------  ---------------
     4     50.327618  1 C  s                 59    -44.850002  2 C  s          
    14     26.030957  1 C  pz                69     21.220343  2 C  pz         
    90    -10.532630  2 C  dzz               35      7.051693  1 C  dzz        
    85     -5.473428  2 C  dxx              225      4.817811  5 F  s          
   170      4.640399  4 O  s                280      4.629190  6 F  s          

 Vector   82  Occ=0.000000D+00  E= 5.914442D-01
              MO Center=  6.7D-02,  3.9D-02,  4.9D-02, r^2= 7.1D+00
   Bfn.  Coefficient  Atom+Function         Bfn.  Coefficient  Atom+Function  
  ----- ------------  ---------------      ----- ------------  ---------------
    59     22.605944  2 C  s                  4    -20.449222  1 C  s          
    69    -12.166020  2 C  pz                14    -11.022322  1 C  pz         
    35     -6.038500  1 C  dzz               90      5.114588  2 C  dzz        
   280     -5.138344  6 F  s                115      4.979684  3 O  s          
    86      4.528909  2 C  dxy               30     -4.416586  1 C  dxx        

 Vector   83  Occ=0.000000D+00  E= 5.950652D-01
              MO Center= -1.3D-02, -2.0D-01, -1.3D-01, r^2= 8.1D+00
   Bfn.  Coefficient  Atom+Function         Bfn.  Coefficient  Atom+Function  
  ----- ------------  ---------------      ----- ------------  ---------------
    59     42.461650  2 C  s                  4    -30.040248  1 C  s          
    69    -21.428743  2 C  pz                14    -19.849272  1 C  pz         
    35    -12.493878  1 C  dzz              115      9.969624  3 O  s          
    33     -9.775738  1 C  dyy              170      8.801491  4 O  s          
    30     -8.184972  1 C  dxx               90      6.262613  2 C  dzz        

 Vector   84  Occ=0.000000D+00  E= 6.019198D-01
              MO Center= -5.8D-02,  5.7D-02,  3.2D-01, r^2= 8.5D+00
   Bfn.  Coefficient  Atom+Function         Bfn.  Coefficient  Atom+Function  
  ----- ------------  ---------------      ----- ------------  ---------------
    60     10.262772  2 C  s                  4      9.948132  1 C  s          
    90     -8.616483  2 C  dzz               14      7.527035  1 C  pz         
    69      6.920718  2 C  pz                 5     -6.718362  1 C  s          
    85     -6.452319  2 C  dxx               59     -6.196193  2 C  s          
   280      5.616469  6 F  s                 88     -5.396407  2 C  dyy        

 Vector   85  Occ=0.000000D+00  E= 6.185134D-01
              MO Center=  1.2D-01,  4.7D-02,  6.7D-01, r^2= 9.2D+00
   Bfn.  Coefficient  Atom+Function         Bfn.  Coefficient  Atom+Function  
  ----- ------------  ---------------      ----- ------------  ---------------
     4     31.649466  1 C  s                 59    -30.282417  2 C  s          
    14     18.100291  1 C  pz                69     17.485673  2 C  pz         
    90    -15.684662  2 C  dzz               60     13.813178  2 C  s          
    88    -12.161760  2 C  dyy              225     12.207960  5 F  s          
    35      9.798445  1 C  dzz                5     -8.264694  1 C  s          

 Vector   86  Occ=0.000000D+00  E= 6.360705D-01
              MO Center= -1.3D-01, -2.1D-01,  1.7D-01, r^2= 7.0D+00
   Bfn.  Coefficient  Atom+Function         Bfn.  Coefficient  Atom+Function  
  ----- ------------  ---------------      ----- ------------  ---------------
     4     11.970548  1 C  s                 59    -11.737944  2 C  s          
    88     -6.216146  2 C  dyy               69      6.162643  2 C  pz         
   225      6.171505  5 F  s                 14      6.082972  1 C  pz         
    90     -5.764231  2 C  dzz               67     -5.253287  2 C  px         
    60      4.694260  2 C  s                115     -4.345882  3 O  s          

 Vector   87  Occ=0.000000D+00  E= 6.431209D-01
              MO Center= -6.5D-02,  9.9D-02,  6.4D-01, r^2= 7.7D+00
   Bfn.  Coefficient  Atom+Function         Bfn.  Coefficient  Atom+Function  
  ----- ------------  ---------------      ----- ------------  ---------------
    68     11.068065  2 C  py                59     -9.584078  2 C  s          
     4      8.032864  1 C  s                 14      7.244543  1 C  pz         
    60      6.731597  2 C  s                  5     -5.835632  1 C  s          
    85     -5.424683  2 C  dxx               67      5.136957  2 C  px         
    69      5.060010  2 C  pz                34     -5.022902  1 C  dyz        

 Vector   88  Occ=0.000000D+00  E= 6.561240D-01
              MO Center=  1.8D-01,  6.3D-02,  1.4D-01, r^2= 7.9D+00
   Bfn.  Coefficient  Atom+Function         Bfn.  Coefficient  Atom+Function  
  ----- ------------  ---------------      ----- ------------  ---------------
    59     14.153530  2 C  s                  4    -11.156793  1 C  s          
   115      9.091190  3 O  s                 14     -8.082898  1 C  pz         
    69     -5.972124  2 C  pz                68     -5.891128  2 C  py         
    60     -5.642341  2 C  s                 35     -5.212785  1 C  dzz        
    90      5.196993  2 C  dzz                5      4.538872  1 C  s          

 Vector   89  Occ=0.000000D+00  E= 6.710679D-01
              MO Center=  5.3D-02,  5.1D-02, -1.1D-01, r^2= 9.2D+00
   Bfn.  Coefficient  Atom+Function         Bfn.  Coefficient  Atom+Function  
  ----- ------------  ---------------      ----- ------------  ---------------
    59     26.101510  2 C  s                  4    -21.435320  1 C  s          
    14    -12.402593  1 C  pz                69    -12.241331  2 C  pz         
[...]
  ----- ------------  ---------------      ----- ------------  ---------------
   284      8.618617  6 F  px               340     -8.026531  7 F  py         
   332     -7.268999  7 F  s                 67      7.132478  2 C  px         
   343     -6.890140  7 F  py               287      5.962221  6 F  px         
   277      5.854160  6 F  s                339      5.864688  7 F  px         
   105      5.747832  2 C  fxyz             341      5.486707  7 F  pz         

 Vector  380  Occ=0.000000D+00  E= 2.172712D+01
              MO Center=  8.8D-02,  5.3D-01,  2.1D+00, r^2= 2.1D+00
   Bfn.  Coefficient  Atom+Function         Bfn.  Coefficient  Atom+Function  
  ----- ------------  ---------------      ----- ------------  ---------------
   230      8.421133  5 F  py               222     -7.913831  5 F  s          
   233      7.353022  5 F  py                68      7.296083  2 C  py         
   225     -5.707358  5 F  s                105     -5.495554  2 C  fxyz       
   287      5.411800  6 F  px               284      5.268776  6 F  px         
   231      4.838760  5 F  pz               234      4.664474  5 F  pz         

 Vector  381  Occ=0.000000D+00  E= 2.331025D+01
              MO Center= -4.2D-01, -4.6D-01,  2.0D+00, r^2= 1.8D+00
   Bfn.  Coefficient  Atom+Function         Bfn.  Coefficient  Atom+Function  
  ----- ------------  ---------------      ----- ------------  ---------------
   279     12.307930  6 F  s                334     -9.954319  7 F  s          
    67     -7.601892  2 C  px               284     -6.673827  6 F  px         
   287     -5.694283  6 F  px               305     -5.283263  6 F  dxx        
   310     -4.820304  6 F  dzz              340      4.841251  7 F  py         
   105     -4.780292  2 C  fxyz             343      4.794932  7 F  py         

 Vector  382  Occ=0.000000D+00  E= 2.358265D+01
              MO Center=  3.6D-01,  6.7D-01,  2.0D+00, r^2= 1.6D+00
   Bfn.  Coefficient  Atom+Function         Bfn.  Coefficient  Atom+Function  
  ----- ------------  ---------------      ----- ------------  ---------------
   224    -12.736740  5 F  s                169     11.791887  4 O  s          
   233     -9.142162  5 F  py                 4     -8.584296  1 C  s          
   253      7.835342  5 F  dyy               59     -7.691975  2 C  s          
   230     -7.100920  5 F  py               255      6.600742  5 F  dzz        
    54      6.479626  1 C  fyzz             250      6.335565  5 F  dxx        

 Vector  383  Occ=0.000000D+00  E= 2.388923D+01
              MO Center= -1.1D-01, -2.3D-01,  2.0D+00, r^2= 2.3D+00
   Bfn.  Coefficient  Atom+Function         Bfn.  Coefficient  Atom+Function  
  ----- ------------  ---------------      ----- ------------  ---------------
    59     13.087849  2 C  s                 68    -12.886143  2 C  py         
   224     -9.875551  5 F  s                287     -8.578182  6 F  px         
   334      8.508567  7 F  s                  4      8.372343  1 C  s          
   225      8.000611  5 F  s                279      7.897081  6 F  s          
   305     -6.740621  6 F  dxx              342      6.634168  7 F  px         

 Vector  384  Occ=0.000000D+00  E= 2.732436D+01
              MO Center= -4.7D-02, -1.2D-03,  1.4D+00, r^2= 1.8D+00
   Bfn.  Coefficient  Atom+Function         Bfn.  Coefficient  Atom+Function  
  ----- ------------  ---------------      ----- ------------  ---------------
    57     29.294785  2 C  s                 56     14.401344  2 C  s          
    50     11.415206  1 C  fxyz              53      9.659900  1 C  fyyz       
   105      7.110565  2 C  fxyz              59     -5.721412  2 C  s          
     2      5.686156  1 C  s                 33     -5.179030  1 C  dyy        
   108      5.157750  2 C  fyyz               4     -4.606522  1 C  s          

 Vector  385  Occ=0.000000D+00  E= 2.890536D+01
              MO Center= -1.8D-02, -7.8D-03,  6.7D-02, r^2= 1.6D+00
   Bfn.  Coefficient  Atom+Function         Bfn.  Coefficient  Atom+Function  
  ----- ------------  ---------------      ----- ------------  ---------------
     2     30.448070  1 C  s                114    -20.288749  3 O  s          
   169    -15.254637  4 O  s                  1     15.000680  1 C  s          
    53    -12.482892  1 C  fyyz              25     11.488867  1 C  dxy        
    50    -10.123929  1 C  fxyz              33     -9.197284  1 C  dyy        
   108     -8.955143  2 C  fyyz              69     -8.288485  2 C  pz         


   alpha - beta orbital overlaps 
   ----------------------------- 


   alpha      1      2      3      4      5      6      7      8      9     10
    beta      1      2      3      5      4      6      7      8      9     10
 overlap   1.000  1.000  1.000  0.961  0.961  1.000  1.000  1.000  0.999  0.999


   alpha     11     12     13     14     15     16     17     18     19     20
    beta     11     12     13     14     15     16     17     18     19     20
 overlap   1.000  1.000  0.997  0.997  1.000  1.000  0.999  0.718  0.728  0.974


   alpha     21     22     23     24     25     26     27     28     29     30
    beta     21     22     23     24     25     26     28     27     29     30
 overlap   0.992  0.983  0.999  0.999  1.000  0.996  0.989  0.985  1.000  0.996


   alpha     31     32     33     34     35     36     37     38     39     40
    beta     31     32     33     34     35     36     37     38     39     40
 overlap   0.983  0.985  1.000  0.995  0.992  0.982  0.987  0.969  0.992  0.996


   alpha     41     42     43     44     45     46     47     48     49     50
    beta     41     42     44     43     45     46     47     48     49     50
 overlap   0.999  0.978  0.744  0.766  0.996  0.996  1.000  0.997  0.983  0.998


   alpha     51     52     53     54     55     56     57     58     59     60
    beta     51     52     53     54     55     56     57     58     59     60
 overlap   0.974  0.765  0.763  0.998  0.996  0.992  0.993  0.997  0.999  0.998


   alpha     61     62     63     64     65     66     67     68     69     70
    beta     61     62     63     64     65     66     67     68     69     70
 overlap   0.998  0.998  0.996  0.980  0.980  0.997  0.999  0.985  0.984  0.966


   alpha     71     72     73     74     75     76     77     78     79     80
    beta     71     72     73     74     75     76     77     78     79     80
 overlap   0.971  0.995  0.999  0.922  0.882  0.939  0.998  1.000  0.999  0.998


   alpha     81     82     83     84     85     86     87     88     89     90
    beta     81     82     83     84     85     86     87     88     89     90
 overlap   0.992  0.977  0.937  0.952  0.997  0.997  0.997  0.998  0.998  0.997


   alpha     91     92     93     94     95     96     97     98     99    100
    beta     91     92     93     94     95     96     97     98     99    100
 overlap   0.995  0.992  0.994  0.994  0.995  0.998  0.996  0.997  0.999  0.987


   alpha    101    102    103    104    105    106    107    108    109    110
    beta    101    102    103    104    105    106    107    108    109    110
 overlap   0.985  0.999  0.997  0.997  0.998  1.000  0.999  0.998  0.991  0.991


   alpha    111    112    113    114    115    116    117    118    119    120
    beta    111    112    113    114    115    116    117    118    119    120
 overlap   0.997  0.999  0.999  0.998  0.996  0.997  0.972  0.970  0.997  0.999


   alpha    121    122    123    124    125    126    127    128    129    130
    beta    121    122    123    124    125    126    127    128    129    130
 overlap   0.993  0.994  1.000  0.991  0.889  0.886  0.998  0.999  0.994  0.994


   alpha    131    132    133    134    135    136    137    138    139    140
    beta    131    132    133    134    135    136    137    138    139    140
 overlap   0.999  0.999  0.999  0.999  1.000  0.999  0.999  0.999  0.991  0.993


   alpha    141    142    143    144    145    146    147    148    149    150
    beta    141    142    143    144    145    146    147    148    149    150
 overlap   0.985  0.984  0.997  0.996  0.991  0.994  0.994  0.973  0.973  0.999


   alpha    151    152    153    154    155    156    157    158    159    160
    beta    151    152    153    154    155    156    157    158    159    160
 overlap   0.999  0.998  0.999  0.996  0.997  0.999  0.994  0.982  0.986  0.998


   alpha    161    162    163    164    165    166    167    168    169    170
    beta    161    162    163    164    165    166    167    168    169    170
 overlap   0.997  0.993  0.994  0.991  0.989  0.992  0.990  0.993  0.997  0.999


   alpha    171    172    173    174    175    176    177    178    179    180
    beta    171    172    173    174    175    176    177    178    179    180
 overlap   0.999  0.999  0.996  0.992  0.996  0.992  0.992  0.999  0.992  0.975


   alpha    181    182    183    184    185    186    187    188    189    190
    beta    181    182    183    184    185    186    187    188    189    190
 overlap   0.984  0.993  0.996  0.997  0.996  0.892  0.889  0.986  0.998  0.996


   alpha    191    192    193    194    195    196    197    198    199    200
    beta    191    192    193    194    195    196    197    198    199    200
 overlap   0.973  0.976  0.993  0.998  0.996  0.996  0.998  0.998  0.997  0.984


   alpha    201    202    203    204    205    206    207    208    209    210
    beta    201    202    203    204    205    206    207    208    209    210
 overlap   0.985  0.998  0.999  0.996  0.996  0.999  1.000  0.998  0.998  0.995


   alpha    211    212    213    214    215    216    217    218    219    220
    beta    211    212    213    214    215    216    217    218    219    220
 overlap   0.995  0.999  0.999  0.999  0.999  0.999  0.999  0.997  0.931  0.932


   alpha    221    222    223    224    225    226    227    228    229    230
    beta    221    222    223    224    225    226    227    228    229    230
 overlap   0.992  0.996  0.999  0.996  0.996  0.999  0.998  0.998  0.997  0.989


   alpha    231    232    233    234    235    236    237    238    239    240
    beta    231    232    233    234    235    236    237    238    239    240
 overlap   0.992  0.999  0.998  0.998  0.997  0.999  1.000  0.994  0.994  0.999


   alpha    241    242    243    244    245    246    247    248    249    250
    beta    241    242    243    244    245    246    247    248    249    250
 overlap   0.999  0.977  0.974  0.997  0.999  0.999  0.999  0.994  0.994  1.000


   alpha    251    252    253    254    255    256    257    258    259    260
    beta    251    252    253    254    255    256    257    258    259    260
 overlap   0.999  0.999  0.993  0.993  0.999  0.999  0.999  0.998  0.991  0.990


   alpha    261    262    263    264    265    266    267    268    269    270
    beta    261    262    263    264    265    266    267    268    269    270
 overlap   0.994  0.994  0.999  0.999  0.999  0.999  1.000  1.000  1.000  1.000


   alpha    271    272    273    274    275    276    277    278    279    280
    beta    272    271    273    274    275    276    277    278    279    280
 overlap   0.719  0.871  0.843  0.997  0.998  0.998  1.000  0.999  0.999  0.998


   alpha    281    282    283    284    285    286    287    288    289    290
    beta    281    282    283    284    285    286    287    288    289    290
 overlap   0.999  0.980  0.981  0.996  0.934  0.959  0.925  0.999  0.998  0.981


   alpha    291    292    293    294    295    296    297    298    299    300
    beta    291    292    293    294    295    296    297    298    299    300
 overlap   0.825  0.838  0.866  0.953  0.951  0.964  0.917  0.867  0.943  0.969


   alpha    301    302    303    304    305    306    307    308    309    310
    beta    301    302    303    304    305    306    307    308    309    310
 overlap   0.969  0.995  0.993  0.986  0.986  0.988  0.989  0.993  0.993  0.999


   alpha    311    312    313    314    315    316    317    318    319    320
    beta    311    312    313    314    315    316    317    318    319    320
 overlap   0.999  0.995  0.994  0.999  1.000  1.000  0.995  0.995  1.000  1.000


   alpha    321    322    323    324    325    326    327    328    329    330
    beta    321    322    323    324    325    326    327    328    329    330
 overlap   1.000  1.000  1.000  1.000  1.000  1.000  1.000  1.000  1.000  1.000


   alpha    331    332    333    334    335    336    337    338    339    340
    beta    331    332    333    334    335    336    337    338    339    340
 overlap   1.000  1.000  1.000  1.000  1.000  1.000  1.000  1.000  1.000  1.000


   alpha    341    342    343    344    345    346    347    348    349    350
    beta    341    342    343    344    345    346    347    348    349    350
 overlap   1.000  1.000  1.000  1.000  1.000  1.000  1.000  1.000  1.000  1.000


   alpha    351    352    353    354    355    356    357    358    359    360
    beta    351    352    353    354    355    356    357    358    359    360
 overlap   1.000  1.000  1.000  1.000  1.000  1.000  1.000  1.000  1.000  1.000


   alpha    361    362    363    364    365    366    367    368    369    370
    beta    361    362    363    364    365    366    367    368    369    370
 overlap   1.000  1.000  1.000  1.000  1.000  1.000  1.000  1.000  1.000  1.000


   alpha    371    372    373    374    375    376    377    378    379    380
    beta    371    372    373    374    375    376    377    378    379    380
 overlap   1.000  1.000  1.000  1.000  1.000  1.000  1.000  1.000  1.000  1.000


   alpha    381    382    383    384    385
    beta    381    382    383    384    385
 overlap   1.000  1.000  1.000  1.000  1.000

     --------------------------
     Expectation value of S2:  
     --------------------------
      <S2> =      0.7527 (Exact =     0.7500)


 center of mass
 --------------
 x =  -0.05684176 y =  -0.01739973 z =   1.98927051

 moments of inertia (a.u.)
 ------------------
         847.874451430770         -63.237660548954          12.769971057001
         -63.237660548954         771.954764732592          -3.610648849998
          12.769971057001          -3.610648849998         475.423777932853

     Multipole analysis of the density
     ---------------------------------

     L   x y z        total         alpha         beta         nuclear
     -   - - -        -----         -----         ----         -------
     0   0 0 0     -0.000000    -28.000000    -27.000000     55.000000

     1   1 0 0     -0.008881      1.517593      1.513096     -3.039570
     1   0 1 0      0.020306      0.514002      0.456342     -0.950038
     1   0 0 1      0.209407    -53.043021    -53.228632    106.481060

     2   2 0 0    -27.539077    -62.366129    -60.937778     95.764831
     2   1 1 0     -1.267681    -17.212814    -15.765565     31.710698
     2   1 0 1      0.029360      6.190101      6.068733    -12.229474
     2   0 2 0    -29.067317    -82.933649    -79.754575    133.620907
     2   0 1 1     -0.007792      0.092282      0.046741     -0.146815
     2   0 0 2    -27.512695   -259.193685   -254.785034    486.466023


 Task  times  cpu:      172.8s     wall:      175.1s


                                NWChem Input Module
                                -------------------


 Summary of allocated global arrays
-----------------------------------
  No active global arrays


MA_summarize_allocated_blocks: starting scan ...
heap block 'gridpts', handle 86, address 0x11836500:
	type of elements:		double precision
	number of elements:		33554432
	address of client space:	0x11836580
	index for client space:		12122121
	total number of bytes:		268435592
MA_summarize_allocated_blocks: scan completed: 1 heap block, 0 stack blocks
MA usage statistics:

	allocation statistics:
					      heap	     stack
					      ----	     -----
	current number of blocks	         1	         0
	maximum number of blocks	        21	        53
	current total bytes		 268435592	         0
	maximum total bytes		 268983400	  41799064
	maximum total K-bytes		    268984	     41800
	maximum total M-bytes		       269	        42


                                     CITATION
                                     --------
                Please cite the following reference when publishing
                           results obtained with NWChem:

          E. Apra, E. J. Bylaska, W. A. de Jong, N. Govind, K. Kowalski,
       T. P. Straatsma, M. Valiev, H. J. J. van Dam, Y. Alexeev, J. Anchell,
       V. Anisimov, F. W. Aquino, R. Atta-Fynn, J. Autschbach, N. P. Bauman,
     J. C. Becca, D. E. Bernholdt, K. Bhaskaran-Nair, S. Bogatko, P. Borowski,
         J. Boschen, J. Brabec, A. Bruner, E. Cauet, Y. Chen, G. N. Chuev,
      C. J. Cramer, J. Daily, M. J. O. Deegan, T. H. Dunning Jr., M. Dupuis,
   K. G. Dyall, G. I. Fann, S. A. Fischer, A. Fonari, H. Fruchtl, L. Gagliardi,
      J. Garza, N. Gawande, S. Ghosh, K. Glaesemann, A. W. Gotz, J. Hammond,
       V. Helms, E. D. Hermes, K. Hirao, S. Hirata, M. Jacquelin, L. Jensen,
   B. G. Johnson, H. Jonsson, R. A. Kendall, M. Klemm, R. Kobayashi, V. Konkov,
      S. Krishnamoorthy, M. Krishnan, Z. Lin, R. D. Lins, R. J. Littlefield,
      A. J. Logsdail, K. Lopata, W. Ma, A. V. Marenich, J. Martin del Campo,
   D. Mejia-Rodriguez, J. E. Moore, J. M. Mullin, T. Nakajima, D. R. Nascimento,
    J. A. Nichols, P. J. Nichols, J. Nieplocha, A. Otero-de-la-Roza, B. Palmer,
    A. Panyala, T. Pirojsirikul, B. Peng, R. Peverati, J. Pittner, L. Pollack,
   R. M. Richard, P. Sadayappan, G. C. Schatz, W. A. Shelton, D. W. Silverstein,
   D. M. A. Smith, T. A. Soares, D. Song, M. Swart, H. L. Taylor, G. S. Thomas,
            V. Tipparaju, D. G. Truhlar, K. Tsemekhman, T. Van Voorhis,
      A. Vazquez-Mayagoitia, P. Verma, O. Villa, A. Vishnu, K. D. Vogiatzis,
        D. Wang, J. H. Weare, M. J. Williamson, T. L. Windus, K. Wolinski,
        A. T. Wong, Q. Wu, C. Yang, Q. Yu, M. Zacharias, Z. Zhang, Y. Zhao,
                                and R. J. Harrison
                        "NWChem: Past, present, and future
                         J. Chem. Phys. 152, 184102 (2020)
                               doi:10.1063/5.0004997

                                      AUTHORS
                                      -------
  E. Apra, E. J. Bylaska, N. Govind, K. Kowalski, M. Valiev, D. Mejia-Rodriguez,
       A. Kunitsa, N. P. Bauman, A. Panyala, W. A. de Jong, T. P. Straatsma,
   H. J. J. van Dam, D. Wang, T. L. Windus, J. Hammond, J. Autschbach, A. Woods,
    K. Bhaskaran-Nair, J. Brabec, K. Lopata, S. A. Fischer, S. Krishnamoorthy,
     M. Jacquelin, W. Ma, M. Klemm, O. Villa, Y. Chen, V. Anisimov, F. Aquino,
     S. Hirata, M. T. Hackler, E. Hermes, L. Jensen, J. E. Moore, J. C. Becca,
      V. Konjkov, T. Risthaus, M. Malagoli, A. Marenich, A. Otero-de-la-Roza,
        J. Mullin, P. Nichols, R. Peverati, J. Pittner, Y. Zhao, P.-D. Fan,
        A. Fonari, M. J. Williamson, R. J. Harrison, J. R. Rehr, M. Dupuis,
     D. Silverstein, D. M. A. Smith, J. Nieplocha, V. Tipparaju, M. Krishnan,
     B. E. Van Kuiken, A. Vazquez-Mayagoitia, M. Swart, Q. Wu, T. Van Voorhis,
     A. A. Auer, M. Nooijen, L. D. Crosby, E. Brown, G. Cisneros, G. I. Fann,
   H. Fruchtl, J. Garza, K. Hirao, R. A. Kendall, J. A. Nichols, K. Tsemekhman,
    K. Wolinski, J. Anchell, D. E. Bernholdt, P. Borowski, T. Clark, D. Clerc,
   H. Dachsel, M. J. O. Deegan, K. Dyall, D. Elwood, E. Glendening, M. Gutowski,
   A. C. Hess, J. Jaffe, B. G. Johnson, J. Ju, R. Kobayashi, R. Kutteh, Z. Lin,
   R. Littlefield, X. Long, B. Meng, T. Nakajima, S. Niu, L. Pollack, M. Rosing,
   K. Glaesemann, G. Sandrone, M. Stave, H. Taylor, G. Thomas, J. H. van Lenthe,
                               A. T. Wong, Z. Zhang.

 Total times  cpu:      172.9s     wall:      175.3s
