 argument  1 = m1e/mol.nwi
                                         
                                         


             Northwest Computational Chemistry Package (NWChem) 7.2.2
             --------------------------------------------------------


                    Environmental Molecular Sciences Laboratory
                       Pacific Northwest National Laboratory
                                Richland, WA 99352

                              Copyright (c) 1994-2022
                       Pacific Northwest National Laboratory
                            Battelle Memorial Institute

             NWChem is an open-source computational chemistry package
                        distributed under the terms of the
                      Educational Community License (ECL) 2.0
             A copy of the license is included with this distribution
                              in the LICENSE.TXT file

                                  ACKNOWLEDGMENT
                                  --------------

            This software and its documentation were developed at the
            EMSL at Pacific Northwest National Laboratory, a multiprogram
            national laboratory, operated for the U.S. Department of Energy
            by Battelle under Contract Number DE-AC05-76RL01830. Support
            for this work was provided by the Department of Energy Office
            of Biological and Environmental Research, Office of Basic
            Energy Sciences, and the Office of Advanced Scientific Computing.


           Job information
           ---------------

    hostname        = r363.ib.bridges2.psc.edu
    program         = nwchem
    date            = Tue Oct  1 15:43:30 2024

    compiled        = Mon_Mar_18_17:03:37_2024
    source          = /ocean/projects/pscstaff/mmadrid/nwchem-7.2.2
    nwchem branch   = 7.2.2
    nwchem revision = 74936fb9
    ga revision     = 5.8.0
    use scalapack   = F
    input           = m1e/mol.nwi
    prefix          = dft.
    data base       = .//dft.db
    status          = startup
    nproc           =       15
    time left       =     -1s



           Memory information
           ------------------

    heap     =   67108862 doubles =    512.0 Mbytes
    stack    =   67108859 doubles =    512.0 Mbytes
    global   =  134217728 doubles =   1024.0 Mbytes (distinct from heap & stack)
    total    =  268435449 doubles =   2048.0 Mbytes
    verify   = yes
    hardfail = no 


           Directory information
           ---------------------

  0 permanent = ./
  0 scratch   = /jet/home/hmt47/nwchem_scratch/




                                NWChem Input Module
                                -------------------


  library name resolved from: environment
  library file name is: </opt/packages/nwchem/nwchem7.2.2/share/nwchem/libraries/>
  


 Summary of "ao basis" -> "" (cartesian)
 ------------------------------------------------------------------------------
       Tag                 Description            Shells   Functions and Types
 ---------------- ------------------------------  ------  ---------------------
 *                        aug-cc-pVTZ                 on all atoms 


  pbe96 is a nonlocal functional; adding pw91lda local functional. 

 Scaling coordinates for geometry "geometry" by  1.889725989
 (inverse scale =  0.529177249)



                             Geometry "geometry" -> ""
                             -------------------------

 Output coordinates in angstroms (scale by  1.889725989 to convert to a.u.)

  No.       Tag          Charge          X              Y              Z
 ---- ---------------- ---------- -------------- -------------- --------------
    1 O                    8.0000     0.84297865    -0.08177103     0.09641654
    2 O                    8.0000     1.80806872     1.28670183    -2.58944976
    3 O                    8.0000     0.20092852     2.10147076     0.01435325
    4 O                    8.0000    -0.37069421     0.64124506    -2.73605095
    5 C                    6.0000     0.56338280     1.00065526    -0.51468751
    6 C                    6.0000     0.67737352     0.97422612    -2.09266257

      Atomic Mass 
      ----------- 

      O                 15.994910
      C                 12.000000


 Effective nuclear repulsion energy (a.u.)     206.0293812399

            Nuclear Dipole moment (a.u.) 
            ----------------------------
        X                 Y               Z
 ---------------- ---------------- ----------------
    51.5796765859    82.0716713012  -108.3983635888


            XYZ format geometry
            -------------------
     6
 geometry
 O                     0.84297865    -0.08177103     0.09641654
 O                     1.80806872     1.28670183    -2.58944976
 O                     0.20092852     2.10147076     0.01435325
 O                    -0.37069421     0.64124506    -2.73605095
 C                     0.56338280     1.00065526    -0.51468751
 C                     0.67737352     0.97422612    -2.09266257

 ==============================================================================
                                internuclear distances
 ------------------------------------------------------------------------------
       center one      |      center two      | atomic units |  angstroms
 ------------------------------------------------------------------------------
    5 C                |   1 O                |     2.40765  |     1.27408
    5 C                |   3 O                |     2.40749  |     1.27399
    6 C                |   2 O                |     2.40739  |     1.27393
    6 C                |   4 O                |     2.40766  |     1.27408
    6 C                |   5 C                |     2.99013  |     1.58231
 ------------------------------------------------------------------------------
                         number of included internuclear distances:          5
 ==============================================================================



 ==============================================================================
                                 internuclear angles
 ------------------------------------------------------------------------------
        center 1       |       center 2       |       center 3       |  degrees
 ------------------------------------------------------------------------------
    1 O                |   5 C                |   3 O                |   126.68
    1 O                |   5 C                |   6 C                |   116.64
    3 O                |   5 C                |   6 C                |   116.68
    2 O                |   6 C                |   4 O                |   126.68
    2 O                |   6 C                |   5 C                |   116.66
    4 O                |   6 C                |   5 C                |   116.66
 ------------------------------------------------------------------------------
                            number of included internuclear angles:          6
 ==============================================================================




                                 NWChem DFT Module
                                 -----------------


                      Basis "ao basis" -> "ao basis" (cartesian)
                      -----
  O (Oxygen)
  ----------
            Exponent  Coefficients 
       -------------- ---------------------------------------------------------
  1 S  1.53300000E+04  0.000508
  1 S  2.29900000E+03  0.003929
  1 S  5.22400000E+02  0.020243
  1 S  1.47300000E+02  0.079181
  1 S  4.75500000E+01  0.230687
  1 S  1.67600000E+01  0.433118
  1 S  6.20700000E+00  0.350260
  1 S  6.88200000E-01 -0.008154

  2 S  1.53300000E+04 -0.000115
  2 S  2.29900000E+03 -0.000895
  2 S  5.22400000E+02 -0.004636
  2 S  1.47300000E+02 -0.018724
  2 S  4.75500000E+01 -0.058463
  2 S  1.67600000E+01 -0.136463
  2 S  6.20700000E+00 -0.175740
  2 S  6.88200000E-01  0.603418

  3 S  1.75200000E+00  1.000000

  4 S  2.38400000E-01  1.000000

  5 S  7.37600000E-02  1.000000

  6 P  3.44600000E+01  0.015928
  6 P  7.74900000E+00  0.099740
  6 P  2.28000000E+00  0.310492

  7 P  7.15600000E-01  1.000000

  8 P  2.14000000E-01  1.000000

  9 P  5.97400000E-02  1.000000

 10 D  2.31400000E+00  1.000000

 11 D  6.45000000E-01  1.000000

 12 D  2.14000000E-01  1.000000

 13 F  1.42800000E+00  1.000000

 14 F  5.00000000E-01  1.000000

  C (Carbon)
  ----------
            Exponent  Coefficients 
       -------------- ---------------------------------------------------------
  1 S  8.23600000E+03  0.000531
  1 S  1.23500000E+03  0.004108
  1 S  2.80800000E+02  0.021087
  1 S  7.92700000E+01  0.081853
  1 S  2.55900000E+01  0.234817
  1 S  8.99700000E+00  0.434401
  1 S  3.31900000E+00  0.346129
  1 S  3.64300000E-01 -0.008983

  2 S  8.23600000E+03 -0.000113
  2 S  1.23500000E+03 -0.000878
  2 S  2.80800000E+02 -0.004540
  2 S  7.92700000E+01 -0.018133
  2 S  2.55900000E+01 -0.055760
  2 S  8.99700000E+00 -0.126895
  2 S  3.31900000E+00 -0.170352
  2 S  3.64300000E-01  0.598684

  3 S  9.05900000E-01  1.000000

  4 S  1.28500000E-01  1.000000

  5 S  4.40200000E-02  1.000000

  6 P  1.87100000E+01  0.014031
  6 P  4.13300000E+00  0.086866
  6 P  1.20000000E+00  0.290216

  7 P  3.82700000E-01  1.000000

  8 P  1.20900000E-01  1.000000

  9 P  3.56900000E-02  1.000000

 10 D  1.09700000E+00  1.000000

 11 D  3.18000000E-01  1.000000

 12 D  1.00000000E-01  1.000000

 13 F  7.61000000E-01  1.000000

 14 F  2.68000000E-01  1.000000



 Summary of "ao basis" -> "ao basis" (cartesian)
 ------------------------------------------------------------------------------
       Tag                 Description            Shells   Functions and Types
 ---------------- ------------------------------  ------  ---------------------
 O                        aug-cc-pVTZ               14       55   5s4p3d2f
 C                        aug-cc-pVTZ               14       55   5s4p3d2f




 Summary of "ao basis" -> "ao basis" (cartesian)
 ------------------------------------------------------------------------------
       Tag                 Description            Shells   Functions and Types
 ---------------- ------------------------------  ------  ---------------------
 O                        aug-cc-pVTZ               14       55   5s4p3d2f
 C                        aug-cc-pVTZ               14       55   5s4p3d2f


  Caching 1-el integrals 

            General Information
            -------------------
          SCF calculation type: DFT
          Wavefunction type:  spin polarized.
          No. of atoms     :     6
          No. of electrons :    45
           Alpha electrons :    23
            Beta electrons :    22
          Charge           :    -1
          Spin multiplicity:     2
          Use of symmetry is: off; symmetry adaption is: off
          Maximum number of iterations: 100
          AO basis - number of functions:   330
                     number of shells:    84
          Convergence on energy requested:  1.00D-06
          Convergence on density requested:  1.00D-05
          Convergence on gradient requested:  5.00D-04

              XC Information
              --------------
          PerdewBurkeErnzerhof Exchange Functional  1.000          
            Perdew 1991 LDA Correlation Functional  1.000 local    
           PerdewBurkeErnz. Correlation Functional  1.000 non-local

             Grid Information
             ----------------
          Grid used for XC integration:  medium    
          Radial quadrature: Mura-Knowles        
          Angular quadrature: Lebedev. 
          Tag              B.-S. Rad. Rad. Pts. Rad. Cut. Ang. Pts.
          ---              ---------- --------- --------- ---------
          O                   0.60       49          12.0       434
          C                   0.70       49          11.0       434
          Grid pruning is: on 
          Number of quadrature shells:   294
          Spatial weights used:  Erf1

          Convergence Information
          -----------------------
          Convergence aids based upon iterative change in 
          total energy or number of iterations. 
          Levelshifting, if invoked, occurs when the 
          HOMO/LUMO gap drops below (HL_TOL):  1.00D-02
          DIIS, if invoked, will attempt to extrapolate 
          using up to (NFOCK): 10 stored Fock matrices.

                    Damping(40%)  Levelshifting(0.0)       DIIS
                  --------------- ------------------- ---------------
          dE  on:    start            0.00D+00            start   
          dE off:  100 iters          0.00D+00          100 iters 


      Screening Tolerance Information
      -------------------------------
          Density screening/tol_rho:  1.00D-10
          AO Gaussian exp screening on grid/accAOfunc:  14
          CD Gaussian exp screening on grid/accCDfunc:  20
          XC Gaussian exp screening on grid/accXCfunc:  20
          Schwarz screening/accCoul:  1.00D-08


 Forcing the number of linearly dependent vectors to be  0

      Superposition of Atomic Density Guess
      -------------------------------------

 Sum of atomic energies:        -374.46637128
   Time after variat. SCF:      0.4
   Time prior to 1st pass:      0.4

 Grid_pts file          = /jet/home/hmt47/nwchem_scratch//dft.gridpts.00
 Record size in doubles =  12289        No. of grid_pts per rec  =   3070
 Max. records in memory =      5        Max. recs in file   =  67550051

 Grid integrated density:      43.999995727984
 Requested integration accuracy:   0.10E-05

           Memory utilization after 1st SCF pass: 
           Heap Space remaining (MW):       33.36            33363494
          Stack Space remaining (MW):       67.11            67106108

   convergence    iter        energy       DeltaE   RMS-Dens  Diis-err    time
 ---------------- ----- ----------------- --------- --------- ---------  ------
 d=40,ls=0.0,diis     1   -377.6229834361 -5.84D+02  3.85D-03  1.25D+01     1.6
                                                     3.82D-03  1.15D+01
 Grid integrated density:      44.599996050799
 Requested integration accuracy:   0.10E-05
 d=40,ls=0.0,diis     2   -377.1958492684  4.27D-01  3.81D-03  2.11D+00     6.4
                                                     4.22D-03  1.93D+00
 Grid integrated density:      44.839996563908
 Requested integration accuracy:   0.10E-05
 d=40,ls=0.0,diis     3   -376.7225610506  4.73D-01  1.26D-03  8.97D-01    11.3
                                                     1.30D-03  8.45D-01
 Grid integrated density:      44.935996357792
 Requested integration accuracy:   0.10E-05
 d=40,ls=0.0,diis     4   -376.8975416890 -1.75D-01  5.58D-04  1.59D-01    15.8
                                                     5.69D-04  1.48D-01
 Grid integrated density:      44.974396368531
 Requested integration accuracy:   0.10E-05
 d=40,ls=0.0,diis     5   -376.9282191433 -3.07D-02  2.61D-04  3.97D-02    20.6
                                                     4.12D-04  3.72D-02
 Grid integrated density:      44.989756894439
 Requested integration accuracy:   0.10E-05
  Resetting Diis
 d=40,ls=0.0,diis     6   -376.9356173241 -7.40D-03  1.22D-04  1.75D-02    25.5
                                                     1.99D-04  1.67D-02
 Grid integrated density:      44.995900880045
 Requested integration accuracy:   0.10E-05
 d=40,ls=0.0,diis     7   -376.9421851887 -6.57D-03  2.41D-04  3.65D-03    30.3
                                                     4.56D-04  3.47D-03
 Grid integrated density:      44.998358427267
 Requested integration accuracy:   0.10E-05
 d=40,ls=0.0,diis     8   -376.9372857003  4.90D-03  1.14D-04  1.40D-02    35.1
                                                     3.44D-04  1.39D-02
 Grid integrated density:      44.999341474841
 Requested integration accuracy:   0.10E-05
 d=40,ls=0.0,diis     9   -376.9428203731 -5.53D-03  5.29D-05  2.34D-03    39.9
                                                     6.94D-05  2.37D-03
 Grid integrated density:      44.999734707372
 Requested integration accuracy:   0.10E-05
 d=40,ls=0.0,diis    10   -376.9442117657 -1.39D-03  2.47D-05  3.55D-04    44.7
                                                     3.21D-05  3.63D-04
 Grid integrated density:      44.999891998523
 Requested integration accuracy:   0.10E-05
 d=40,ls=0.0,diis    11   -376.9446375612 -4.26D-04  9.76D-06  6.76D-05    49.5
                                                     1.34D-05  7.09D-05
 Grid integrated density:      44.999954915870
 Requested integration accuracy:   0.10E-05
 d=40,ls=0.0,diis    12   -376.9447966438 -1.59D-04  3.95D-06  1.11D-05    54.2
                                                     6.07D-06  1.18D-05
 d=40,ls=0.0,diis    13   -376.9448571201 -6.05D-05  1.67D-06  1.60D-06    59.0
                                                     3.32D-06  1.78D-06
 d=40,ls=0.0,diis    14   -376.9448805801 -2.35D-05  6.50D-07  4.62D-07    63.7
                                                     1.37D-06  5.10D-07
 d=40,ls=0.0,diis    15   -376.9448900245 -9.44D-06  2.56D-07  6.53D-08    68.5
                                                     5.52D-07  7.74D-08
 d=40,ls=0.0,diis    16   -376.9448937682 -3.74D-06  1.04D-07  1.05D-08    73.3
                                                     2.34D-07  1.29D-08
 d=40,ls=0.0,diis    17   -376.9448952614 -1.49D-06  5.28D-08  1.69D-09    78.1
                                                     9.79D-08  2.15D-09
 d=40,ls=0.0,diis    18   -376.9448958581 -5.97D-07  2.05D-08  2.55D-10    83.0
                                                     4.02D-08  3.37D-10


         Total DFT energy =     -376.944895858066
      One electron energy =     -934.978601673225
           Coulomb energy =      396.864127431838
    Exchange-Corr. energy =      -44.859802856544
 Nuclear repulsion energy =      206.029381239865

 Numeric. integr. density =       44.999996688947

     Total iterative time =     82.5s



                    DFT Final Alpha Molecular Orbital Analysis
                    ------------------------------------------

 Vector    1  Occ=1.000000D+00  E=-1.859267D+01
              MO Center=  3.7D-01,  1.8D+00, -2.4D-01, r^2= 1.3D+00
   Bfn.  Coefficient  Atom+Function         Bfn.  Coefficient  Atom+Function  
  ----- ------------  ---------------      ----- ------------  ---------------
   111      0.882356  3 O  s                  1      0.295875  1 O  s          
    56     -0.274285  2 O  s                166     -0.147002  4 O  s          
   113      0.059607  3 O  s                224     -0.034142  5 C  s          
   114     -0.033080  3 O  s                273     -0.029127  5 C  fyyz       

 Vector    2  Occ=1.000000D+00  E=-1.859266D+01
              MO Center=  1.4D+00,  1.3D+00, -2.3D+00, r^2= 1.4D+00
   Bfn.  Coefficient  Atom+Function         Bfn.  Coefficient  Atom+Function  
  ----- ------------  ---------------      ----- ------------  ---------------
    56      0.874178  2 O  s                111      0.319879  3 O  s          
   166      0.308851  4 O  s                279     -0.061022  6 C  s          
    58      0.058947  2 O  s                224     -0.055864  5 C  s          
   289      0.030956  6 C  pz               323      0.028115  6 C  fxxz       
     4      0.026122  1 O  s          

 Vector    3  Occ=1.000000D+00  E=-1.859264D+01
              MO Center=  7.9D-01,  1.4D-01,  5.7D-03, r^2= 7.0D-01
   Bfn.  Coefficient  Atom+Function         Bfn.  Coefficient  Atom+Function  
  ----- ------------  ---------------      ----- ------------  ---------------
     1      0.922202  1 O  s                111     -0.283488  3 O  s          
    56      0.134043  2 O  s                166     -0.106430  4 O  s          
     3      0.061976  1 O  s                  4     -0.046539  1 O  s          
   114      0.040750  3 O  s                233      0.037164  5 C  py         
   274     -0.030239  5 C  fyzz             224     -0.027574  5 C  s          

 Vector    4  Occ=1.000000D+00  E=-1.859263D+01
              MO Center= -1.0D-01,  6.9D-01, -2.7D+00, r^2= 7.4D-01
   Bfn.  Coefficient  Atom+Function         Bfn.  Coefficient  Atom+Function  
  ----- ------------  ---------------      ----- ------------  ---------------
   166      0.912641  4 O  s                 56     -0.322271  2 O  s          
     1      0.152303  1 O  s                168      0.061296  4 O  s          
   169     -0.045549  4 O  s                 59      0.043773  2 O  s          
   287      0.037298  6 C  px               279     -0.030057  6 C  s          
   326     -0.029599  6 C  fxzz             307     -0.028258  6 C  dxz        

 Vector    5  Occ=1.000000D+00  E=-9.852304D+00
              MO Center=  6.1D-01,  9.9D-01, -1.2D+00, r^2= 6.4D-01
   Bfn.  Coefficient  Atom+Function         Bfn.  Coefficient  Atom+Function  
  ----- ------------  ---------------      ----- ------------  ---------------
   221      0.758575  5 C  s                276      0.670604  6 C  s          
   222      0.063745  5 C  s                277      0.056427  6 C  s          
   223      0.048716  5 C  s                278      0.042692  6 C  s          
     4     -0.037739  1 O  s                114     -0.037842  3 O  s          
    59     -0.033827  2 O  s                169     -0.033750  4 O  s          

 Vector    6  Occ=1.000000D+00  E=-9.852228D+00
              MO Center=  6.3D-01,  9.9D-01, -1.4D+00, r^2= 6.4D-01
   Bfn.  Coefficient  Atom+Function         Bfn.  Coefficient  Atom+Function  
  ----- ------------  ---------------      ----- ------------  ---------------
   276      0.758361  6 C  s                221     -0.670362  5 C  s          
   224      0.146872  5 C  s                279     -0.144935  6 C  s          
   277      0.063130  6 C  s                234     -0.056975  5 C  pz         
   222     -0.055730  5 C  s                289     -0.055110  6 C  pz         
   278      0.051739  6 C  s                223     -0.046110  5 C  s          

 Vector    7  Occ=1.000000D+00  E=-8.264278D-01
              MO Center=  6.2D-01,  9.9D-01, -1.3D+00, r^2= 2.4D+00
   Bfn.  Coefficient  Atom+Function         Bfn.  Coefficient  Atom+Function  
  ----- ------------  ---------------      ----- ------------  ---------------
   222      0.205761  5 C  s                277      0.205837  6 C  s          
     2      0.197321  1 O  s                 57      0.197552  2 O  s          
   112      0.197401  3 O  s                167      0.197340  4 O  s          
     4      0.102683  1 O  s                 59      0.102797  2 O  s          
   114      0.102711  3 O  s                169      0.102667  4 O  s          

 Vector    8  Occ=1.000000D+00  E=-7.984375D-01
              MO Center=  6.2D-01,  9.9D-01, -1.3D+00, r^2= 2.7D+00
   Bfn.  Coefficient  Atom+Function         Bfn.  Coefficient  Atom+Function  
  ----- ------------  ---------------      ----- ------------  ---------------
     2      0.214348  1 O  s                 57     -0.214575  2 O  s          
   112      0.214634  3 O  s                167     -0.214244  4 O  s          
   222      0.173730  5 C  s                277     -0.173650  6 C  s          
     4      0.123165  1 O  s                 59     -0.123415  2 O  s          
   114      0.123477  3 O  s                169     -0.123132  4 O  s          

 Vector    9  Occ=1.000000D+00  E=-7.339365D-01
              MO Center=  6.3D-01,  9.8D-01, -1.5D+00, r^2= 2.7D+00
   Bfn.  Coefficient  Atom+Function         Bfn.  Coefficient  Atom+Function  
  ----- ------------  ---------------      ----- ------------  ---------------
    57      0.258493  2 O  s                167     -0.258873  4 O  s          
     2      0.219622  1 O  s                112     -0.219408  3 O  s          
    59      0.217062  2 O  s                169     -0.217286  4 O  s          
     4      0.184329  1 O  s                114     -0.184214  3 O  s          
   281      0.116957  6 C  px               227     -0.096134  5 C  py         

 Vector   10  Occ=1.000000D+00  E=-7.339303D-01
              MO Center=  6.1D-01,  9.9D-01, -1.1D+00, r^2= 2.7D+00
   Bfn.  Coefficient  Atom+Function         Bfn.  Coefficient  Atom+Function  
  ----- ------------  ---------------      ----- ------------  ---------------
     2      0.258742  1 O  s                112     -0.258632  3 O  s          
    57     -0.219471  2 O  s                167      0.219564  4 O  s          
     4      0.217187  1 O  s                114     -0.217125  3 O  s          
    59     -0.184219  2 O  s                169      0.184295  4 O  s          
   227     -0.117199  5 C  py               281     -0.095955  6 C  px         

 Vector   11  Occ=1.000000D+00  E=-4.238229D-01
              MO Center=  6.2D-01,  9.9D-01, -1.3D+00, r^2= 1.8D+00
   Bfn.  Coefficient  Atom+Function         Bfn.  Coefficient  Atom+Function  
  ----- ------------  ---------------      ----- ------------  ---------------
   222      0.215719  5 C  s                277      0.215711  6 C  s          
   228     -0.160024  5 C  pz               283      0.160025  6 C  pz         
     2     -0.132049  1 O  s                 57     -0.132016  2 O  s          
   112     -0.131985  3 O  s                167     -0.131998  4 O  s          
   231     -0.130884  5 C  pz               286      0.130886  6 C  pz         

 Vector   12  Occ=1.000000D+00  E=-2.835291D-01
              MO Center=  6.2D-01,  9.9D-01, -1.3D+00, r^2= 4.0D+00
   Bfn.  Coefficient  Atom+Function         Bfn.  Coefficient  Atom+Function  
  ----- ------------  ---------------      ----- ------------  ---------------
   224      0.242374  5 C  s                279     -0.242357  6 C  s          
   222      0.197523  5 C  s                277     -0.197518  6 C  s          
     4     -0.164391  1 O  s                 59      0.164478  2 O  s          
   114     -0.164481  3 O  s                169      0.164391  4 O  s          
     2     -0.143218  1 O  s                 57      0.143279  2 O  s          

 Vector   13  Occ=1.000000D+00  E=-2.586004D-01
              MO Center=  6.2D-01,  9.9D-01, -1.3D+00, r^2= 3.5D+00
   Bfn.  Coefficient  Atom+Function         Bfn.  Coefficient  Atom+Function  
  ----- ------------  ---------------      ----- ------------  ---------------
   228      0.146182  5 C  pz               283     -0.146193  6 C  pz         
     7      0.139132  1 O  py               117     -0.139065  3 O  py         
   171      0.139361  4 O  px                61     -0.138315  2 O  px         
    10      0.132446  1 O  py               120     -0.132284  3 O  py         
   174      0.132828  4 O  px                64     -0.131407  2 O  px         

 Vector   14  Occ=1.000000D+00  E=-2.453888D-01
              MO Center=  5.7D-01,  1.0D+00, -5.5D-01, r^2= 3.0D+00
   Bfn.  Coefficient  Atom+Function         Bfn.  Coefficient  Atom+Function  
  ----- ------------  ---------------      ----- ------------  ---------------
   227      0.168112  5 C  py                 8      0.139361  1 O  pz         
    11      0.136270  1 O  pz                 2      0.133759  1 O  s          
   112     -0.133537  3 O  s                117     -0.132169  3 O  py         
   118     -0.131251  3 O  pz               121     -0.128702  3 O  pz         
     7     -0.128047  1 O  py               120     -0.124617  3 O  py         

 Vector   15  Occ=1.000000D+00  E=-2.453852D-01
              MO Center=  6.7D-01,  9.7D-01, -2.1D+00, r^2= 3.0D+00
   Bfn.  Coefficient  Atom+Function         Bfn.  Coefficient  Atom+Function  
  ----- ------------  ---------------      ----- ------------  ---------------
   281      0.167779  6 C  px               173     -0.144215  4 O  pz         
   176     -0.140887  4 O  pz                61     -0.139583  2 O  px         
    57     -0.133589  2 O  s                167      0.133710  4 O  s          
    64     -0.131881  2 O  px                63      0.126401  2 O  pz         
    66      0.124088  2 O  pz               171     -0.120092  4 O  px         

 Vector   16  Occ=1.000000D+00  E=-2.047519D-01
              MO Center=  6.4D-01,  9.8D-01, -1.5D+00, r^2= 3.1D+00
   Bfn.  Coefficient  Atom+Function         Bfn.  Coefficient  Atom+Function  
  ----- ------------  ---------------      ----- ------------  ---------------
   172      0.160629  4 O  py                62      0.159508  2 O  py         
   175      0.157537  4 O  py                65      0.156434  2 O  py         
   282      0.141751  6 C  py               285      0.129551  6 C  py         
   226      0.123659  5 C  px               117      0.117202  3 O  py         
     7      0.115400  1 O  py               120      0.113162  3 O  py         

 Vector   17  Occ=1.000000D+00  E=-2.047415D-01
              MO Center=  6.0D-01,  9.9D-01, -1.1D+00, r^2= 3.1D+00
   Bfn.  Coefficient  Atom+Function         Bfn.  Coefficient  Atom+Function  
  ----- ------------  ---------------      ----- ------------  ---------------
   116      0.162204  3 O  px               119      0.159094  3 O  px         
     6      0.157154  1 O  px                 9      0.154116  1 O  px         
   226      0.141517  5 C  px               229      0.129315  5 C  px         
   282     -0.124028  6 C  py                61      0.119848  2 O  px         
    64      0.115776  2 O  px               171      0.111941  4 O  px         

 Vector   18  Occ=1.000000D+00  E=-1.444550D-01
              MO Center=  6.2D-01,  9.9D-01, -1.3D+00, r^2= 3.6D+00
   Bfn.  Coefficient  Atom+Function         Bfn.  Coefficient  Atom+Function  
  ----- ------------  ---------------      ----- ------------  ---------------
    66      0.178957  2 O  pz                63      0.177806  2 O  pz         
   121      0.177616  3 O  pz               118      0.176390  3 O  pz         
    11      0.174107  1 O  pz                 8      0.172714  1 O  pz         
   176      0.172760  4 O  pz               173      0.171291  4 O  pz         
    69      0.108224  2 O  pz               124      0.107124  3 O  pz         

 Vector   19  Occ=1.000000D+00  E=-9.847550D-02
              MO Center=  6.2D-01,  9.9D-01, -1.3D+00, r^2= 3.7D+00
   Bfn.  Coefficient  Atom+Function         Bfn.  Coefficient  Atom+Function  
  ----- ------------  ---------------      ----- ------------  ---------------
     9      0.185103  1 O  px                65     -0.185454  2 O  py         
   119     -0.185170  3 O  px               175      0.185487  4 O  py         
     6      0.184022  1 O  px                62     -0.184368  2 O  py         
   116     -0.184092  3 O  px               172      0.184410  4 O  py         
    12      0.124764  1 O  px                68     -0.124974  2 O  py         

 Vector   20  Occ=1.000000D+00  E=-8.806983D-02
              MO Center=  6.2D-01,  9.9D-01, -1.3D+00, r^2= 3.7D+00
   Bfn.  Coefficient  Atom+Function         Bfn.  Coefficient  Atom+Function  
  ----- ------------  ---------------      ----- ------------  ---------------
     9      0.190728  1 O  px                65      0.191175  2 O  py         
   119     -0.190624  3 O  px               175     -0.191178  4 O  py         
     6      0.189209  1 O  px                62      0.189647  2 O  py         
   116     -0.189106  3 O  px               172     -0.189657  4 O  py         
    12      0.126715  1 O  px                68      0.126998  2 O  py         

 Vector   21  Occ=1.000000D+00  E=-7.831421D-02
              MO Center=  5.6D-01,  1.0D+00, -4.6D-01, r^2= 3.0D+00
   Bfn.  Coefficient  Atom+Function         Bfn.  Coefficient  Atom+Function  
  ----- ------------  ---------------      ----- ------------  ---------------
   121      0.194286  3 O  pz               118      0.193024  3 O  pz         
    11     -0.184042  1 O  pz                 8     -0.182980  1 O  pz         
    10     -0.178770  1 O  py                 7     -0.176381  1 O  py         
   120     -0.172548  3 O  py               117     -0.170192  3 O  py         
   124      0.153193  3 O  pz                14     -0.148146  1 O  pz         

 Vector   22  Occ=1.000000D+00  E=-7.830163D-02
              MO Center=  6.8D-01,  9.7D-01, -2.1D+00, r^2= 3.0D+00
   Bfn.  Coefficient  Atom+Function         Bfn.  Coefficient  Atom+Function  
  ----- ------------  ---------------      ----- ------------  ---------------
    66      0.201268  2 O  pz                63      0.199953  2 O  pz         
   174      0.189021  4 O  px               171      0.186576  4 O  px         
   176     -0.177036  4 O  pz               173     -0.176028  4 O  pz         
    64      0.161545  2 O  px                61      0.159252  2 O  px         
    69      0.157166  2 O  pz               179     -0.144163  4 O  pz         

 Vector   23  Occ=1.000000D+00  E=-5.816026D-02
              MO Center=  6.2D-01,  9.9D-01, -1.3D+00, r^2= 3.6D+00
   Bfn.  Coefficient  Atom+Function         Bfn.  Coefficient  Atom+Function  
  ----- ------------  ---------------      ----- ------------  ---------------
    11      0.185657  1 O  pz                66     -0.185866  2 O  pz         
   121      0.185812  3 O  pz               176     -0.185587  4 O  pz         
     8      0.184455  1 O  pz                63     -0.184717  2 O  pz         
   118      0.184646  3 O  pz               173     -0.184368  4 O  pz         
    69     -0.128380  2 O  pz               124      0.127591  3 O  pz         

 Vector   24  Occ=0.000000D+00  E= 1.315071D-01
              MO Center=  6.2D-01,  9.9D-01, -1.3D+00, r^2= 1.7D+01
   Bfn.  Coefficient  Atom+Function         Bfn.  Coefficient  Atom+Function  
  ----- ------------  ---------------      ----- ------------  ---------------
   225     -2.763993  5 C  s                280     -2.767026  6 C  s          
     5      2.710113  1 O  s                 60      2.713047  2 O  s          
   115      2.714770  3 O  s                170      2.711040  4 O  s          
   224     -1.986530  5 C  s                279     -1.985582  6 C  s          
   237     -1.591745  5 C  pz               292      1.590851  6 C  pz         

 Vector   25  Occ=0.000000D+00  E= 1.344159D-01
              MO Center=  6.0D-01,  9.9D-01, -1.0D+00, r^2= 3.0D+00
   Bfn.  Coefficient  Atom+Function         Bfn.  Coefficient  Atom+Function  
  ----- ------------  ---------------      ----- ------------  ---------------
   232      0.342811  5 C  px               290      0.296113  6 C  px         
   229      0.270436  5 C  px               226      0.251570  5 C  px         
   288      0.203572  6 C  py               285      0.198452  6 C  py         
   307      0.194923  6 C  dxz              122     -0.189340  3 O  px         
   236      0.187826  5 C  py                12     -0.184259  1 O  px         

 Vector   26  Occ=0.000000D+00  E= 1.344512D-01
              MO Center=  6.4D-01,  9.8D-01, -1.6D+00, r^2= 3.0D+00
   Bfn.  Coefficient  Atom+Function         Bfn.  Coefficient  Atom+Function  
  ----- ------------  ---------------      ----- ------------  ---------------
   288      0.343241  6 C  py               236      0.296945  5 C  py         
   285      0.271036  6 C  py               282      0.252105  6 C  py         
   232     -0.203180  5 C  px               229     -0.198053  5 C  px         
   254     -0.196498  5 C  dyz               68     -0.187898  2 O  py         
   178     -0.186317  4 O  py               290     -0.185695  6 C  px         

 Vector   27  Occ=0.000000D+00  E= 1.359404D-01
              MO Center=  6.2D-01,  9.9D-01, -1.3D+00, r^2= 2.3D+01
   Bfn.  Coefficient  Atom+Function         Bfn.  Coefficient  Atom+Function  
  ----- ------------  ---------------      ----- ------------  ---------------
   225     14.468270  5 C  s                280    -14.467437  6 C  s          
   237     -4.196341  5 C  pz               292     -4.197263  6 C  pz         
   250     -1.359211  5 C  dxx              308      1.359244  6 C  dyy        
   255     -1.345831  5 C  dzz              310      1.345295  6 C  dzz        
   253     -1.081714  5 C  dyy              305      1.082705  6 C  dxx        

 Vector   28  Occ=0.000000D+00  E= 1.559186D-01
              MO Center=  5.9D-01,  9.9D-01, -8.1D-01, r^2= 1.8D+01
   Bfn.  Coefficient  Atom+Function         Bfn.  Coefficient  Atom+Function  
  ----- ------------  ---------------      ----- ------------  ---------------
     5      2.862663  1 O  s                115     -2.863521  3 O  s          
   233      1.670434  5 C  py               236      1.568210  5 C  py         
   291      1.005704  6 C  py               274     -0.721283  5 C  fyzz       
    17     -0.578441  1 O  pz               127      0.555780  3 O  pz         
   230     -0.490960  5 C  py               232     -0.489651  5 C  px         

 Vector   29  Occ=0.000000D+00  E= 1.559192D-01
              MO Center=  6.6D-01,  9.8D-01, -1.8D+00, r^2= 1.8D+01
   Bfn.  Coefficient  Atom+Function         Bfn.  Coefficient  Atom+Function  
  ----- ------------  ---------------      ----- ------------  ---------------
    60      2.864272  2 O  s                170     -2.862073  4 O  s          
   287     -1.667017  6 C  px               290     -1.564769  6 C  px         
   235     -1.003637  5 C  px               326      0.717692  6 C  fxzz       
   182     -0.584591  4 O  pz                72      0.549630  2 O  pz         
   288     -0.493022  6 C  py               284      0.490057  6 C  px         

 Vector   30  Occ=0.000000D+00  E= 1.773168D-01
              MO Center=  6.2D-01,  9.9D-01, -1.3D+00, r^2= 2.0D+01
   Bfn.  Coefficient  Atom+Function         Bfn.  Coefficient  Atom+Function  
  ----- ------------  ---------------      ----- ------------  ---------------
   237      4.852887  5 C  pz               292     -4.852982  6 C  pz         
     5      2.736428  1 O  s                 60      2.736232  2 O  s          
   115      2.736925  3 O  s                170      2.737243  4 O  s          
   224     -2.493532  5 C  s                279     -2.492683  6 C  s          
   225     -2.364867  5 C  s                280     -2.365186  6 C  s          

 Vector   31  Occ=0.000000D+00  E= 1.838102D-01
              MO Center=  6.2D-01,  9.9D-01, -1.3D+00, r^2= 1.9D+01
   Bfn.  Coefficient  Atom+Function         Bfn.  Coefficient  Atom+Function  
  ----- ------------  ---------------      ----- ------------  ---------------
   235      3.453809  5 C  px               290     -3.390508  6 C  px         
   291      1.666015  6 C  py               236     -1.563698  5 C  py         
    60      1.337148  2 O  s                170     -1.321799  4 O  s          
   115      1.189516  3 O  s                  5     -1.177528  1 O  s          
    15     -0.443623  1 O  px               125     -0.445021  3 O  px         

 Vector   32  Occ=0.000000D+00  E= 1.838135D-01
              MO Center=  6.2D-01,  9.9D-01, -1.4D+00, r^2= 1.9D+01
   Bfn.  Coefficient  Atom+Function         Bfn.  Coefficient  Atom+Function  
  ----- ------------  ---------------      ----- ------------  ---------------
   291     -3.464324  6 C  py               236      3.400903  5 C  py         
   235      1.665790  5 C  px               290     -1.564104  6 C  px         
     5      1.331713  1 O  s                115     -1.325389  3 O  s          
   170     -1.191023  4 O  s                 60      1.173558  2 O  s          
    71      0.446092  2 O  py               181      0.445008  4 O  py         

 Vector   33  Occ=0.000000D+00  E= 2.070028D-01
              MO Center=  6.2D-01,  9.8D-01, -1.3D+00, r^2= 1.8D+01
   Bfn.  Coefficient  Atom+Function         Bfn.  Coefficient  Atom+Function  
  ----- ------------  ---------------      ----- ------------  ---------------
   224     23.477944  5 C  s                279    -23.478208  6 C  s          
     5     -7.798031  1 O  s                 60      7.796293  2 O  s          
   115     -7.795278  3 O  s                170      7.797251  4 O  s          
   234     -7.132239  5 C  pz               289     -7.132231  6 C  pz         
   255      6.950269  5 C  dzz              310     -6.954547  6 C  dzz        

 Vector   34  Occ=0.000000D+00  E= 2.286599D-01
              MO Center=  6.2D-01,  9.9D-01, -1.3D+00, r^2= 1.6D+01
   Bfn.  Coefficient  Atom+Function         Bfn.  Coefficient  Atom+Function  
  ----- ------------  ---------------      ----- ------------  ---------------
   225     34.455558  5 C  s                280    -34.456018  6 C  s          
   237     -6.635229  5 C  pz               292     -6.635746  6 C  pz         
     5     -4.965923  1 O  s                 60      4.962964  2 O  s          
   115     -4.961608  3 O  s                170      4.965805  4 O  s          
   224      2.407134  5 C  s                279     -2.408363  6 C  s          

 Vector   35  Occ=0.000000D+00  E= 2.337859D-01
              MO Center=  6.2D-01,  9.9D-01, -1.3D+00, r^2= 1.4D+01
   Bfn.  Coefficient  Atom+Function         Bfn.  Coefficient  Atom+Function  
  ----- ------------  ---------------      ----- ------------  ---------------
    15      1.068413  1 O  px                71     -1.068291  2 O  py         
   125     -1.069047  3 O  px               181      1.070614  4 O  py         
   251      0.958009  5 C  dxy              306      0.959858  6 C  dxy        
    70      0.320913  2 O  px                16      0.315722  1 O  py         
   253      0.315804  5 C  dyy              308      0.314588  6 C  dyy        

 Vector   36  Occ=0.000000D+00  E= 2.413781D-01
              MO Center=  6.2D-01,  9.9D-01, -1.3D+00, r^2= 1.7D+01
   Bfn.  Coefficient  Atom+Function         Bfn.  Coefficient  Atom+Function  
  ----- ------------  ---------------      ----- ------------  ---------------
     5      6.132200  1 O  s                 60      6.139821  2 O  s          
   115      6.142234  3 O  s                170      6.135472  4 O  s          
   224     -4.893842  5 C  s                279     -4.894845  6 C  s          
   253     -3.222168  5 C  dyy              305     -3.223207  6 C  dxx        
   255     -3.027780  5 C  dzz              310     -3.031105  6 C  dzz        

 Vector   37  Occ=0.000000D+00  E= 2.736688D-01
              MO Center=  6.2D-01,  9.9D-01, -1.3D+00, r^2= 1.6D+01
   Bfn.  Coefficient  Atom+Function         Bfn.  Coefficient  Atom+Function  
  ----- ------------  ---------------      ----- ------------  ---------------
   254      3.142640  5 C  dyz              307      2.729560  6 C  dxz        
   236      2.333711  5 C  py               291     -1.968960  6 C  py         
    17      1.719305  1 O  pz               127     -1.713364  3 O  pz         
   182      1.654316  4 O  pz                72     -1.638826  2 O  pz         
   290     -1.430470  6 C  px               309      1.330807  6 C  dyz        

 Vector   38  Occ=0.000000D+00  E= 2.736765D-01
              MO Center=  6.2D-01,  9.9D-01, -1.4D+00, r^2= 1.6D+01
   Bfn.  Coefficient  Atom+Function         Bfn.  Coefficient  Atom+Function  
  ----- ------------  ---------------      ----- ------------  ---------------
   307      3.119465  6 C  dxz              254     -2.744287  5 C  dyz        
   290     -2.329027  6 C  px               235      1.963988  5 C  px         
   182      1.732206  4 O  pz                72     -1.701797  2 O  pz         
    17     -1.654970  1 O  pz               127      1.639866  3 O  pz         
   236     -1.432879  5 C  py               232     -1.305638  5 C  px         

 Vector   39  Occ=0.000000D+00  E= 2.766550D-01
              MO Center=  6.2D-01,  9.8D-01, -1.3D+00, r^2= 1.6D+01
   Bfn.  Coefficient  Atom+Function         Bfn.  Coefficient  Atom+Function  
  ----- ------------  ---------------      ----- ------------  ---------------
   251      1.752895  5 C  dxy              306     -1.755441  6 C  dxy        
    15      1.606094  1 O  px                71      1.610864  2 O  py         
   125     -1.608924  3 O  px               181     -1.610624  4 O  py         
   253      0.572554  5 C  dyy              308     -0.571010  6 C  dyy        
   250     -0.563556  5 C  dxx              305      0.560477  6 C  dxx        

 Vector   40  Occ=0.000000D+00  E= 2.981113D-01
              MO Center=  6.2D-01,  9.9D-01, -1.3D+00, r^2= 1.5D+01
   Bfn.  Coefficient  Atom+Function         Bfn.  Coefficient  Atom+Function  
  ----- ------------  ---------------      ----- ------------  ---------------
   290      3.583710  6 C  px               233     -3.329718  5 C  py         
     5     -3.080390  1 O  s                115      3.078619  3 O  s          
    60      2.897364  2 O  s                170     -2.881375  4 O  s          
   235     -2.838804  5 C  px                70     -2.783373  2 O  px         
   180     -2.780196  4 O  px               236      2.626802  5 C  py         

 Vector   41  Occ=0.000000D+00  E= 2.981350D-01
              MO Center=  6.3D-01,  9.9D-01, -1.3D+00, r^2= 1.5D+01
   Bfn.  Coefficient  Atom+Function         Bfn.  Coefficient  Atom+Function  
  ----- ------------  ---------------      ----- ------------  ---------------
   236      3.594435  5 C  py               287      3.320899  6 C  px         
   170      3.091194  4 O  s                 60     -3.062936  2 O  s          
     5     -2.898430  1 O  s                115      2.873585  3 O  s          
   291     -2.851232  6 C  py                16     -2.789043  1 O  py         
   126     -2.784968  3 O  py               290     -2.622617  6 C  px         

 Vector   42  Occ=0.000000D+00  E= 3.040498D-01
              MO Center=  6.2D-01,  9.8D-01, -1.3D+00, r^2= 1.6D+01
   Bfn.  Coefficient  Atom+Function         Bfn.  Coefficient  Atom+Function  
  ----- ------------  ---------------      ----- ------------  ---------------
   225      9.017183  5 C  s                280     -9.017171  6 C  s          
   224     -3.791384  5 C  s                279      3.793147  6 C  s          
    17     -2.490980  1 O  pz                72     -2.488129  2 O  pz         
   127     -2.484863  3 O  pz               182     -2.491182  4 O  pz         
   253     -2.442290  5 C  dyy              305      2.433341  6 C  dxx        

 Vector   43  Occ=0.000000D+00  E= 3.094926D-01
              MO Center=  6.2D-01,  9.9D-01, -1.3D+00, r^2= 1.8D+01
   Bfn.  Coefficient  Atom+Function         Bfn.  Coefficient  Atom+Function  
  ----- ------------  ---------------      ----- ------------  ---------------
   237      4.822679  5 C  pz               292     -4.822767  6 C  pz         
    72      2.484507  2 O  pz               127     -2.473416  3 O  pz         
    17     -2.444994  1 O  pz               182      2.432821  4 O  pz         
   225      2.183464  5 C  s                280      2.177530  6 C  s          
   253     -1.667554  5 C  dyy              305     -1.657402  6 C  dxx        

 Vector   44  Occ=0.000000D+00  E= 3.174579D-01
              MO Center=  6.2D-01,  9.9D-01, -1.3D+00, r^2= 1.7D+01
   Bfn.  Coefficient  Atom+Function         Bfn.  Coefficient  Atom+Function  
  ----- ------------  ---------------      ----- ------------  ---------------
   291     -2.787405  6 C  py                16      2.629959  1 O  py         
   126      2.616964  3 O  py               236     -2.592242  5 C  py         
    71      2.382498  2 O  py               181      2.362870  4 O  py         
   307     -2.372021  6 C  dxz              254      1.948131  5 C  dyz        
   252     -1.728312  5 C  dxz              235     -1.437813  5 C  px         

 Vector   45  Occ=0.000000D+00  E= 3.174644D-01
              MO Center=  6.2D-01,  9.9D-01, -1.3D+00, r^2= 1.7D+01
   Bfn.  Coefficient  Atom+Function         Bfn.  Coefficient  Atom+Function  
  ----- ------------  ---------------      ----- ------------  ---------------
   235     -2.777050  5 C  px               180      2.658422  4 O  px         
    70      2.579980  2 O  px               290     -2.588461  6 C  px         
    15      2.401132  1 O  px               254     -2.390932  5 C  dyz        
   125      2.329333  3 O  px               307     -1.939740  6 C  dxz        
   309     -1.747275  6 C  dyz              291      1.433510  6 C  py         

 Vector   46  Occ=0.000000D+00  E= 3.246145D-01
              MO Center=  6.2D-01,  9.9D-01, -1.3D+00, r^2= 9.8D+00
   Bfn.  Coefficient  Atom+Function         Bfn.  Coefficient  Atom+Function  
  ----- ------------  ---------------      ----- ------------  ---------------
   225     21.670089  5 C  s                280    -21.668827  6 C  s          
   237     -4.739560  5 C  pz               292     -4.738907  6 C  pz         
   250     -2.783365  5 C  dxx              308      2.783577  6 C  dyy        
   255     -2.578840  5 C  dzz              310      2.575089  6 C  dzz        
   253     -1.621269  5 C  dyy              305      1.624964  6 C  dxx        

 Vector   47  Occ=0.000000D+00  E= 3.357701D-01
              MO Center=  6.2D-01,  9.8D-01, -1.3D+00, r^2= 1.4D+01
   Bfn.  Coefficient  Atom+Function         Bfn.  Coefficient  Atom+Function  
  ----- ------------  ---------------      ----- ------------  ---------------
   224      8.108654  5 C  s                279      8.102785  6 C  s          
   225      7.264712  5 C  s                280      7.261565  6 C  s          
     5     -6.841750  1 O  s                 60     -6.821004  2 O  s          
   115     -6.822258  3 O  s                170     -6.830997  4 O  s          
   237     -5.596082  5 C  pz               292      5.595187  6 C  pz         

 Vector   48  Occ=0.000000D+00  E= 3.502439D-01
              MO Center=  6.2D-01,  1.0D+00, -1.3D+00, r^2= 1.4D+01
   Bfn.  Coefficient  Atom+Function         Bfn.  Coefficient  Atom+Function  
  ----- ------------  ---------------      ----- ------------  ---------------
   225     20.191174  5 C  s                280    -20.194982  6 C  s          
    60     13.546120  2 O  s                115    -13.571472  3 O  s          
     5    -13.478560  1 O  s                170     13.511338  4 O  s          
   224      9.196275  5 C  s                279     -9.200929  6 C  s          
   253      6.695869  5 C  dyy              305     -6.677398  6 C  dxx        

 Vector   49  Occ=0.000000D+00  E= 3.678728D-01
              MO Center=  6.1D-01,  9.8D-01, -1.2D+00, r^2= 1.5D+01
   Bfn.  Coefficient  Atom+Function         Bfn.  Coefficient  Atom+Function  
  ----- ------------  ---------------      ----- ------------  ---------------
     5      7.547582  1 O  s                115     -7.437082  3 O  s          
   170     -6.950558  4 O  s                 60      6.837099  2 O  s          
   287     -3.614253  6 C  px               254      3.506125  5 C  dyz        
   233      3.469391  5 C  py               291     -2.673157  6 C  py         
   307      2.666413  6 C  dxz              236      2.317484  5 C  py         

 Vector   50  Occ=0.000000D+00  E= 3.678826D-01
              MO Center=  6.3D-01,  9.9D-01, -1.4D+00, r^2= 1.5D+01
   Bfn.  Coefficient  Atom+Function         Bfn.  Coefficient  Atom+Function  
  ----- ------------  ---------------      ----- ------------  ---------------
    60     -7.521626  2 O  s                170      7.464084  4 O  s          
     5      6.912055  1 O  s                115     -6.874652  3 O  s          
   233      3.622144  5 C  py               287      3.463594  6 C  px         
   307     -3.478354  6 C  dxz              235     -2.667578  5 C  px         
   254      2.676961  5 C  dyz              290      2.310778  6 C  px         

 Vector   51  Occ=0.000000D+00  E= 4.414793D-01
              MO Center=  6.7D-01,  1.1D+00, -1.2D+00, r^2= 9.8D+00
   Bfn.  Coefficient  Atom+Function         Bfn.  Coefficient  Atom+Function  
  ----- ------------  ---------------      ----- ------------  ---------------
   254      6.101223  5 C  dyz              309      5.824875  6 C  dyz        
    60      4.378371  2 O  s                115     -4.070213  3 O  s          
   279     -3.906092  6 C  s                224      3.872279  5 C  s          
   307      3.821603  6 C  dxz              252      3.178984  5 C  dxz        
   170     -2.542465  4 O  s                  5      2.380450  1 O  s          

 Vector   52  Occ=0.000000D+00  E= 4.415276D-01
              MO Center=  6.0D-01,  1.0D+00, -1.4D+00, r^2= 9.8D+00
   Bfn.  Coefficient  Atom+Function         Bfn.  Coefficient  Atom+Function  
  ----- ------------  ---------------      ----- ------------  ---------------
   307      6.036709  6 C  dxz              252      5.856098  5 C  dxz        
   254     -3.750104  5 C  dyz              170     -3.662190  4 O  s          
   115      3.643558  3 O  s                  5     -3.287153  1 O  s          
   309     -3.261440  6 C  dyz               60      2.834002  2 O  s          
   126     -1.768633  3 O  py                16     -1.657222  1 O  py         

 Vector   53  Occ=0.000000D+00  E= 4.422552D-01
              MO Center=  6.0D-01,  8.8D-01, -1.3D+00, r^2= 1.3D+01
   Bfn.  Coefficient  Atom+Function         Bfn.  Coefficient  Atom+Function  
  ----- ------------  ---------------      ----- ------------  ---------------
   224     43.830872  5 C  s                279    -43.824387  6 C  s          
   234    -18.615085  5 C  pz               289    -18.618205  6 C  pz         
   255     15.246609  5 C  dzz              310    -15.242570  6 C  dzz        
   225    -10.539294  5 C  s                280     10.542831  6 C  s          
     5    -10.382126  1 O  s                170     10.188602  4 O  s          

 Vector   54  Occ=0.000000D+00  E= 4.471410D-01
              MO Center=  6.2D-01,  9.9D-01, -1.3D+00, r^2= 1.3D+01
   Bfn.  Coefficient  Atom+Function         Bfn.  Coefficient  Atom+Function  
  ----- ------------  ---------------      ----- ------------  ---------------
    60     13.423507  2 O  s                115     13.447333  3 O  s          
     5     13.344164  1 O  s                170     13.376193  4 O  s          
   224     -8.952286  5 C  s                279     -8.964219  6 C  s          
   253     -6.866815  5 C  dyy              305     -6.852028  6 C  dxx        
   250     -4.732123  5 C  dxx              308     -4.743569  6 C  dyy        

 Vector   55  Occ=0.000000D+00  E= 4.588176D-01
              MO Center=  6.2D-01,  9.9D-01, -1.3D+00, r^2= 7.3D+00
   Bfn.  Coefficient  Atom+Function         Bfn.  Coefficient  Atom+Function  
  ----- ------------  ---------------      ----- ------------  ---------------
   224     23.786510  5 C  s                279    -23.786841  6 C  s          
   225     21.964633  5 C  s                280    -21.965626  6 C  s          
   234     -9.972418  5 C  pz               289     -9.972735  6 C  pz         
     5     -5.808033  1 O  s                 60      5.808643  2 O  s          
   115     -5.811514  3 O  s                170      5.807494  4 O  s          

 Vector   56  Occ=0.000000D+00  E= 4.690813D-01
              MO Center=  6.2D-01,  9.9D-01, -1.3D+00, r^2= 7.1D+00
   Bfn.  Coefficient  Atom+Function         Bfn.  Coefficient  Atom+Function  
  ----- ------------  ---------------      ----- ------------  ---------------
   251      2.411756  5 C  dxy              306      2.411405  6 C  dxy        
    12      1.071143  1 O  px                68     -1.075226  2 O  py         
   122     -1.071391  3 O  px               178      1.071126  4 O  py         
    71     -0.857731  2 O  py               181      0.855448  4 O  py         
    15      0.850077  1 O  px               125     -0.853864  3 O  px         

 Vector   57  Occ=0.000000D+00  E= 4.938420D-01
              MO Center=  6.2D-01,  9.9D-01, -1.3D+00, r^2= 9.6D+00
   Bfn.  Coefficient  Atom+Function         Bfn.  Coefficient  Atom+Function  
  ----- ------------  ---------------      ----- ------------  ---------------
   255      7.073931  5 C  dzz              310      7.072968  6 C  dzz        
   224     -4.552813  5 C  s                279     -4.535406  6 C  s          
   234     -2.615102  5 C  pz               289      2.620587  6 C  pz         
   237      2.380551  5 C  pz               292     -2.379219  6 C  pz         
   225     -1.919488  5 C  s                280     -1.909190  6 C  s          

 Vector   58  Occ=0.000000D+00  E= 5.038138D-01
              MO Center=  6.2D-01,  9.9D-01, -1.3D+00, r^2= 6.5D+00
   Bfn.  Coefficient  Atom+Function         Bfn.  Coefficient  Atom+Function  
  ----- ------------  ---------------      ----- ------------  ---------------
   279      4.394425  6 C  s                224      4.369359  5 C  s          
   255     -3.607937  5 C  dzz              310     -3.593773  6 C  dzz        
   253      3.354029  5 C  dyy              305      3.324329  6 C  dxx        
   234      2.770655  5 C  pz               289     -2.765684  6 C  pz         
   306      2.310582  6 C  dxy              251     -2.281025  5 C  dxy        

 Vector   59  Occ=0.000000D+00  E= 5.165339D-01
              MO Center=  6.3D-01,  9.8D-01, -1.4D+00, r^2= 8.1D+00
   Bfn.  Coefficient  Atom+Function         Bfn.  Coefficient  Atom+Function  
  ----- ------------  ---------------      ----- ------------  ---------------
   307      5.311440  6 C  dxz              254     -4.411770  5 C  dyz        
   287     -2.394801  6 C  px               309      2.128943  6 C  dyz        
    59      1.492308  2 O  s                169     -1.495877  4 O  s          
   232      1.409212  5 C  px               233     -1.413456  5 C  py         
   182      1.304637  4 O  pz                72     -1.270300  2 O  pz         

 Vector   60  Occ=0.000000D+00  E= 5.165522D-01
              MO Center=  6.2D-01,  9.9D-01, -1.2D+00, r^2= 8.1D+00
   Bfn.  Coefficient  Atom+Function         Bfn.  Coefficient  Atom+Function  
  ----- ------------  ---------------      ----- ------------  ---------------
   254      5.345801  5 C  dyz              307      4.386104  6 C  dxz        
   233      2.397805  5 C  py               252     -2.093676  5 C  dxz        
     4      1.497345  1 O  s                114     -1.488574  3 O  s          
   287     -1.408618  6 C  px               288     -1.412501  6 C  py         
   127     -1.308525  3 O  pz                17      1.266009  1 O  pz         

 Vector   61  Occ=0.000000D+00  E= 5.452706D-01
              MO Center=  6.2D-01,  9.9D-01, -1.3D+00, r^2= 7.5D+00
   Bfn.  Coefficient  Atom+Function         Bfn.  Coefficient  Atom+Function  
  ----- ------------  ---------------      ----- ------------  ---------------
   225     28.763848  5 C  s                280    -28.750009  6 C  s          
   224     20.819927  5 C  s                279    -20.773315  6 C  s          
     5     -9.788636  1 O  s                 60      9.761369  2 O  s          
   115     -9.780591  3 O  s                170      9.769068  4 O  s          
   237     -4.284215  5 C  pz               292     -4.274668  6 C  pz         

 Vector   62  Occ=0.000000D+00  E= 5.506902D-01
              MO Center=  6.2D-01,  9.9D-01, -1.3D+00, r^2= 9.0D+00
   Bfn.  Coefficient  Atom+Function         Bfn.  Coefficient  Atom+Function  
  ----- ------------  ---------------      ----- ------------  ---------------
   224     17.905453  5 C  s                279     17.953365  6 C  s          
     5     -7.907303  1 O  s                 60     -7.924188  2 O  s          
   115     -7.899372  3 O  s                170     -7.930417  4 O  s          
   253      7.663839  5 C  dyy              305      7.631943  6 C  dxx        
   251     -6.235736  5 C  dxy              306      6.255171  6 C  dxy        

 Vector   63  Occ=0.000000D+00  E= 5.701353D-01
              MO Center=  6.1D-01,  9.9D-01, -1.2D+00, r^2= 4.7D+00
   Bfn.  Coefficient  Atom+Function         Bfn.  Coefficient  Atom+Function  
  ----- ------------  ---------------      ----- ------------  ---------------
   233      5.306823  5 C  py               287     -3.849534  6 C  px         
   309     -2.380388  6 C  dyz                5      2.305376  1 O  s          
   115     -2.297504  3 O  s                252     -2.105043  5 C  dxz        
   288     -1.968781  6 C  py                60      1.831320  2 O  s          
   170     -1.832340  4 O  s                272     -1.166738  5 C  fyyy       

 Vector   64  Occ=0.000000D+00  E= 5.701877D-01
              MO Center=  6.3D-01,  9.9D-01, -1.4D+00, r^2= 4.7D+00
   Bfn.  Coefficient  Atom+Function         Bfn.  Coefficient  Atom+Function  
  ----- ------------  ---------------      ----- ------------  ---------------
   287      5.302104  6 C  px               233      3.859868  5 C  py         
   252      2.369034  5 C  dxz               60     -2.323750  2 O  s          
   170      2.284973  4 O  s                309     -2.120745  6 C  dyz        
   232     -1.963580  5 C  px               115     -1.841825  3 O  s          
     5      1.824385  1 O  s                321     -1.159800  6 C  fxxx       

 Vector   65  Occ=0.000000D+00  E= 5.822223D-01
              MO Center=  6.2D-01,  9.9D-01, -1.3D+00, r^2= 9.8D+00
   Bfn.  Coefficient  Atom+Function         Bfn.  Coefficient  Atom+Function  
  ----- ------------  ---------------      ----- ------------  ---------------
   251      6.060352  5 C  dxy              306     -6.062590  6 C  dxy        
   253      1.971620  5 C  dyy              308     -1.969532  6 C  dyy        
   250     -1.950054  5 C  dxx              305      1.948373  6 C  dxx        
    12      1.703733  1 O  px                68      1.708794  2 O  py         
   122     -1.706092  3 O  px               178     -1.709908  4 O  py         

 Vector   66  Occ=0.000000D+00  E= 6.067460D-01
              MO Center=  6.2D-01,  9.9D-01, -1.2D+00, r^2= 7.8D+00
   Bfn.  Coefficient  Atom+Function         Bfn.  Coefficient  Atom+Function  
  ----- ------------  ---------------      ----- ------------  ---------------
   287     11.279999  6 C  px               233     10.681633  5 C  py         
   232     -5.886907  5 C  px               115     -3.317145  3 O  s          
     5      3.289796  1 O  s                 60     -3.035161  2 O  s          
   170      3.029751  4 O  s                  4      2.528205  1 O  s          
   114     -2.538808  3 O  s                 59     -2.329542  2 O  s          

 Vector   67  Occ=0.000000D+00  E= 6.067578D-01
              MO Center=  6.2D-01,  9.8D-01, -1.4D+00, r^2= 7.8D+00
   Bfn.  Coefficient  Atom+Function         Bfn.  Coefficient  Atom+Function  
  ----- ------------  ---------------      ----- ------------  ---------------
   233     11.312738  5 C  py               287    -10.665171  6 C  px         
   288     -5.915425  6 C  py                60      3.305009  2 O  s          
   170     -3.297989  4 O  s                115     -3.045717  3 O  s          
     5      3.017558  1 O  s                 59      2.533363  2 O  s          
   169     -2.537482  4 O  s                  4      2.325098  1 O  s          

 Vector   68  Occ=0.000000D+00  E= 6.359962D-01
              MO Center=  6.2D-01,  1.0D+00, -1.3D+00, r^2= 9.5D+00
   Bfn.  Coefficient  Atom+Function         Bfn.  Coefficient  Atom+Function  
  ----- ------------  ---------------      ----- ------------  ---------------
   225    -13.411499  5 C  s                280     13.411393  6 C  s          
   224    -13.287828  5 C  s                279     13.286973  6 C  s          
     5     12.954034  1 O  s                170    -12.871885  4 O  s          
    60    -12.761669  2 O  s                115     12.679347  3 O  s          
   253    -10.804475  5 C  dyy              305     10.759920  6 C  dxx        

 Vector   69  Occ=0.000000D+00  E= 6.395724D-01
              MO Center=  6.0D-01,  9.9D-01, -8.9D-01, r^2= 1.0D+01
   Bfn.  Coefficient  Atom+Function         Bfn.  Coefficient  Atom+Function  
  ----- ------------  ---------------      ----- ------------  ---------------
   254     14.612783  5 C  dyz              307    -11.741571  6 C  dxz        
   288     10.530912  6 C  py               252     -8.194995  5 C  dxz        
   115     -8.060531  3 O  s                  5      7.827537  1 O  s          
   232      6.210773  5 C  px               170      5.251760  4 O  s          
    60     -5.017687  2 O  s                233      3.338628  5 C  py         

 Vector   70  Occ=0.000000D+00  E= 6.395862D-01
              MO Center=  6.4D-01,  9.7D-01, -1.7D+00, r^2= 1.0D+01
   Bfn.  Coefficient  Atom+Function         Bfn.  Coefficient  Atom+Function  
  ----- ------------  ---------------      ----- ------------  ---------------
   307     14.522288  6 C  dxz              254     11.808846  5 C  dyz        
   232    -10.517423  5 C  px               309      8.302459  6 C  dyz        
    60      8.112452  2 O  s                170     -7.779192  4 O  s          
   288      6.226756  6 C  py               115     -5.302304  3 O  s          
     5      4.965026  1 O  s                287     -3.336310  6 C  px         

 Vector   71  Occ=0.000000D+00  E= 6.906942D-01
              MO Center=  6.2D-01,  9.9D-01, -1.3D+00, r^2= 7.9D+00
   Bfn.  Coefficient  Atom+Function         Bfn.  Coefficient  Atom+Function  
  ----- ------------  ---------------      ----- ------------  ---------------
   224     21.028450  5 C  s                279     21.025323  6 C  s          
   234     13.435045  5 C  pz               289    -13.438783  6 C  pz         
   253      6.063698  5 C  dyy              305      6.008018  6 C  dxx        
   306      5.624499  6 C  dxy              251     -5.556796  5 C  dxy        
     4     -4.912994  1 O  s                 59     -4.912741  2 O  s          

 Vector   72  Occ=0.000000D+00  E= 6.925965D-01
              MO Center=  6.2D-01,  9.8D-01, -1.3D+00, r^2= 8.6D+00
   Bfn.  Coefficient  Atom+Function         Bfn.  Coefficient  Atom+Function  
  ----- ------------  ---------------      ----- ------------  ---------------
   251      1.448084  5 C  dxy              306      1.272967  6 C  dxy        
    32     -1.095542  1 O  dxz              199      1.096276  4 O  dyz        
    89     -0.996184  2 O  dyz              142      0.993930  3 O  dxz        
    86      0.900015  2 O  dxy               31      0.797505  1 O  dxy        
   141      0.787020  3 O  dxy              300      0.774528  6 C  dxy        

 Vector   73  Occ=0.000000D+00  E= 7.200064D-01
              MO Center=  6.2D-01,  9.9D-01, -1.3D+00, r^2= 1.0D+01
   Bfn.  Coefficient  Atom+Function         Bfn.  Coefficient  Atom+Function  
  ----- ------------  ---------------      ----- ------------  ---------------
   224     36.570093  5 C  s                279    -36.571029  6 C  s          
   234    -14.080171  5 C  pz               289    -14.079247  6 C  pz         
   225     12.422205  5 C  s                280    -12.422266  6 C  s          
    67     -4.060099  2 O  px                 4     -3.958768  1 O  s          
    59      3.967358  2 O  s                114     -3.970730  3 O  s          

 Vector   74  Occ=0.000000D+00  E= 7.657980D-01
              MO Center=  6.2D-01,  9.9D-01, -1.3D+00, r^2= 7.6D+00
   Bfn.  Coefficient  Atom+Function         Bfn.  Coefficient  Atom+Function  
  ----- ------------  ---------------      ----- ------------  ---------------
   270      2.830300  5 C  fxyz             325      2.831519  6 C  fxyz       
   196     -1.512356  4 O  dxy               31      1.501041  1 O  dxy        
   141      1.501067  3 O  dxy               86     -1.489932  2 O  dxy        
   251     -1.097011  5 C  dxy              306      1.099563  6 C  dxy        
   273      0.927226  5 C  fyyz             328      0.926180  6 C  fyyz       

 Vector   75  Occ=0.000000D+00  E= 7.734881D-01
              MO Center=  6.2D-01,  9.9D-01, -1.3D+00, r^2= 9.1D+00
   Bfn.  Coefficient  Atom+Function         Bfn.  Coefficient  Atom+Function  
  ----- ------------  ---------------      ----- ------------  ---------------
   253      6.360031  5 C  dyy              305      6.342023  6 C  dxx        
     5     -5.341229  1 O  s                 60     -5.342799  2 O  s          
   115     -5.334835  3 O  s                170     -5.344655  4 O  s          
   273     -4.297493  5 C  fyyz             323      4.269235  6 C  fxxz       
   308      3.146723  6 C  dyy               59      3.117882  2 O  s          

 Vector   76  Occ=0.000000D+00  E= 7.860137D-01
              MO Center=  6.2D-01,  9.9D-01, -1.3D+00, r^2= 6.5D+00
   Bfn.  Coefficient  Atom+Function         Bfn.  Coefficient  Atom+Function  
  ----- ------------  ---------------      ----- ------------  ---------------
   254      2.282464  5 C  dyz               34     -1.741368  1 O  dyz        
   144     -1.666740  3 O  dyz              123      1.583185  3 O  py         
    13      1.575294  1 O  py               115     -1.546735  3 O  s          
   309      1.544883  6 C  dyz                4      1.527950  1 O  s          
   114     -1.522021  3 O  s                  5      1.496509  1 O  s          

 Vector   77  Occ=0.000000D+00  E= 7.860464D-01
              MO Center=  6.2D-01,  9.9D-01, -1.4D+00, r^2= 6.5D+00
   Bfn.  Coefficient  Atom+Function         Bfn.  Coefficient  Atom+Function  
  ----- ------------  ---------------      ----- ------------  ---------------
   307      2.254419  6 C  dxz              197     -1.802745  4 O  dxz        
    67     -1.612907  2 O  px                87     -1.581664  2 O  dxz        
   177     -1.541882  4 O  px               169     -1.534146  4 O  s          
   170     -1.541240  4 O  s                 59      1.525247  2 O  s          
   252      1.527499  5 C  dxz               60      1.494983  2 O  s          

 Vector   78  Occ=0.000000D+00  E= 7.976205D-01
              MO Center=  6.2D-01,  9.9D-01, -1.3D+00, r^2= 9.9D+00
   Bfn.  Coefficient  Atom+Function         Bfn.  Coefficient  Atom+Function  
  ----- ------------  ---------------      ----- ------------  ---------------
   224     56.176523  5 C  s                279    -56.175746  6 C  s          
   234    -36.485212  5 C  pz               289    -36.485384  6 C  pz         
   255     20.400273  5 C  dzz              310    -20.404839  6 C  dzz        
   225    -13.704365  5 C  s                280     13.703344  6 C  s          
   253     13.241271  5 C  dyy              305    -13.276597  6 C  dxx        

 Vector   79  Occ=0.000000D+00  E= 8.112185D-01
              MO Center=  6.1D-01,  9.9D-01, -1.2D+00, r^2= 9.8D+00
   Bfn.  Coefficient  Atom+Function         Bfn.  Coefficient  Atom+Function  
  ----- ------------  ---------------      ----- ------------  ---------------
   326      3.795119  6 C  fxzz              59     -3.256663  2 O  s          
   169      3.255982  4 O  s                284      3.005048  6 C  px         
     4      2.920229  1 O  s                114     -2.918999  3 O  s          
   274      2.737104  5 C  fyzz             267      2.526158  5 C  fxxy       
    67      2.511660  2 O  px               177      2.312171  4 O  px         

 Vector   80  Occ=0.000000D+00  E= 8.112358D-01
              MO Center=  6.3D-01,  9.8D-01, -1.4D+00, r^2= 9.8D+00
   Bfn.  Coefficient  Atom+Function         Bfn.  Coefficient  Atom+Function  
  ----- ------------  ---------------      ----- ------------  ---------------
   274      3.813542  5 C  fyzz               4      3.263560  1 O  s          
   114     -3.254863  3 O  s                230      3.016277  5 C  py         
    59      2.921382  2 O  s                169     -2.926390  4 O  s          
   326     -2.714953  6 C  fxzz             324     -2.521724  6 C  fxyy       
   123      2.433467  3 O  py                13      2.405071  1 O  py         

 Vector   81  Occ=0.000000D+00  E= 8.200296D-01
              MO Center=  6.2D-01,  9.9D-01, -1.3D+00, r^2= 9.4D+00
   Bfn.  Coefficient  Atom+Function         Bfn.  Coefficient  Atom+Function  
  ----- ------------  ---------------      ----- ------------  ---------------
   254      6.674182  5 C  dyz               60      6.574848  2 O  s          
   170     -6.587736  4 O  s                  5      6.239047  1 O  s          
   115     -6.200386  3 O  s                309      5.498867  6 C  dyz        
   307      4.670335  6 C  dxz              232     -4.568591  5 C  px         
   288      3.679659  6 C  py               326      3.154239  6 C  fxzz       

 Vector   82  Occ=0.000000D+00  E= 8.200632D-01
              MO Center=  6.2D-01,  9.9D-01, -1.3D+00, r^2= 9.4D+00
   Bfn.  Coefficient  Atom+Function         Bfn.  Coefficient  Atom+Function  
  ----- ------------  ---------------      ----- ------------  ---------------
     5      6.617643  1 O  s                307     -6.622194  6 C  dxz        
   115     -6.554898  3 O  s                170      6.244083  4 O  s          
    60     -6.205011  2 O  s                252     -5.444955  5 C  dxz        
   254      4.689653  5 C  dyz              288      4.577647  6 C  py         
   232      3.672160  5 C  px               274     -3.173362  5 C  fyzz       

 Vector   83  Occ=0.000000D+00  E= 8.284744D-01
              MO Center=  6.2D-01,  9.9D-01, -1.3D+00, r^2= 1.0D+01
   Bfn.  Coefficient  Atom+Function         Bfn.  Coefficient  Atom+Function  
  ----- ------------  ---------------      ----- ------------  ---------------
   115     11.173930  3 O  s                  5     11.113514  1 O  s          
    60     11.155917  2 O  s                170     11.127567  4 O  s          
   234     -7.662556  5 C  pz               289      7.672689  6 C  pz         
   253     -7.249302  5 C  dyy              305     -7.219051  6 C  dxx        
   250     -4.078915  5 C  dxx              308     -4.092081  6 C  dyy        

 Vector   84  Occ=0.000000D+00  E= 8.311649D-01
              MO Center=  6.2D-01,  9.9D-01, -1.3D+00, r^2= 7.3D+00
   Bfn.  Coefficient  Atom+Function         Bfn.  Coefficient  Atom+Function  
  ----- ------------  ---------------      ----- ------------  ---------------
   251      1.631948  5 C  dxy              306     -1.633047  6 C  dxy        
   270      1.142433  5 C  fxyz             325      1.142230  6 C  fxyz       
   199      1.109931  4 O  dyz               32      1.100316  1 O  dxz        
    89     -1.104237  2 O  dyz              142     -1.100820  3 O  dxz        
    68      0.975117  2 O  py                12      0.969420  1 O  px         

 Vector   85  Occ=0.000000D+00  E= 8.559935D-01
              MO Center=  6.2D-01,  9.8D-01, -1.3D+00, r^2= 9.4D+00
   Bfn.  Coefficient  Atom+Function         Bfn.  Coefficient  Atom+Function  
  ----- ------------  ---------------      ----- ------------  ---------------
   288     -6.649834  6 C  py               233      6.402473  5 C  py         
   254     -5.769215  5 C  dyz              309     -5.154732  6 C  dyz        
    59     -4.899952  2 O  s                114      4.896768  3 O  s          
     4     -4.786034  1 O  s                169      4.806572  4 O  s          
   230     -4.500531  5 C  py               284      4.367604  6 C  px         

 Vector   86  Occ=0.000000D+00  E= 8.560239D-01
              MO Center=  6.3D-01,  9.9D-01, -1.3D+00, r^2= 9.4D+00
   Bfn.  Coefficient  Atom+Function         Bfn.  Coefficient  Atom+Function  
  ----- ------------  ---------------      ----- ------------  ---------------
   232      6.644004  5 C  px               287     -6.376802  6 C  px         
   307     -5.720226  6 C  dxz              252     -5.116692  5 C  dxz        
   114     -4.897496  3 O  s                169      4.866050  4 O  s          
     4      4.804733  1 O  s                 59     -4.822568  2 O  s          
   284      4.490082  6 C  px               230      4.370986  5 C  py         

 Vector   87  Occ=0.000000D+00  E= 8.577504D-01
              MO Center=  6.2D-01,  1.0D+00, -1.3D+00, r^2= 8.4D+00
   Bfn.  Coefficient  Atom+Function         Bfn.  Coefficient  Atom+Function  
  ----- ------------  ---------------      ----- ------------  ---------------
   224     25.920980  5 C  s                279    -25.921346  6 C  s          
   234     -8.213602  5 C  pz               289     -8.203105  6 C  pz         
   255      7.284943  5 C  dzz              310     -7.289638  6 C  dzz        
   253      6.562537  5 C  dyy              305     -6.576077  6 C  dxx        
    60      6.302901  2 O  s                115     -6.328567  3 O  s          

 Vector   88  Occ=0.000000D+00  E= 8.625521D-01
              MO Center=  6.2D-01,  9.8D-01, -1.3D+00, r^2= 5.9D+00
   Bfn.  Coefficient  Atom+Function         Bfn.  Coefficient  Atom+Function  
  ----- ------------  ---------------      ----- ------------  ---------------
   196      1.331659  4 O  dxy              141      1.316414  3 O  dxy        
    31      1.295630  1 O  dxy               86      1.279574  2 O  dxy        
   122     -1.160666  3 O  px               178      1.158911  4 O  py         
   270      1.155667  5 C  fxyz             325     -1.161153  6 C  fxyz       
    12      1.136679  1 O  px                68     -1.136056  2 O  py         

 Vector   89  Occ=0.000000D+00  E= 8.720581D-01
              MO Center=  6.2D-01,  9.9D-01, -1.3D+00, r^2= 8.2D+00
   Bfn.  Coefficient  Atom+Function         Bfn.  Coefficient  Atom+Function  
  ----- ------------  ---------------      ----- ------------  ---------------
   224      8.969001  5 C  s                279      8.973071  6 C  s          
   255     -6.602928  5 C  dzz              310     -6.602146  6 C  dzz        
   225      4.139416  5 C  s                280      4.142869  6 C  s          
     4     -3.716087  1 O  s                 59     -3.707641  2 O  s          
   114     -3.704086  3 O  s                169     -3.714792  4 O  s          

 Vector   90  Occ=0.000000D+00  E= 9.318123D-01
              MO Center=  7.4D-01,  6.8D-01, -1.7D+00, r^2= 7.4D+00
   Bfn.  Coefficient  Atom+Function         Bfn.  Coefficient  Atom+Function  
  ----- ------------  ---------------      ----- ------------  ---------------
   224     35.331164  5 C  s                279    -35.295927  6 C  s          
   234    -19.757358  5 C  pz               289    -19.614259  6 C  pz         
   225     16.502577  5 C  s                280    -16.543412  6 C  s          
     5     -7.886204  1 O  s                 60      7.604234  2 O  s          
   170      7.614860  4 O  s                115     -7.041401  3 O  s          

 Vector   91  Occ=0.000000D+00  E= 9.318365D-01
              MO Center=  3.9D-01,  1.1D+00, -7.6D-01, r^2= 6.7D+00
   Bfn.  Coefficient  Atom+Function         Bfn.  Coefficient  Atom+Function  
  ----- ------------  ---------------      ----- ------------  ---------------
   224     15.572967  5 C  s                279    -15.606314  6 C  s          
   289     -8.867451  6 C  pz               234     -8.405255  5 C  pz         
   225      7.312072  5 C  s                280     -7.267563  6 C  s          
   232      4.983289  5 C  px               307     -3.980559  6 C  dxz        
   170      3.800536  4 O  s                169      3.744661  4 O  s          

 Vector   92  Occ=0.000000D+00  E= 9.319032D-01
              MO Center=  7.3D-01,  1.3D+00, -1.5D+00, r^2= 7.2D+00
   Bfn.  Coefficient  Atom+Function         Bfn.  Coefficient  Atom+Function  
  ----- ------------  ---------------      ----- ------------  ---------------
   224     27.036195  5 C  s                279    -27.059419  6 C  s          
   234    -15.220746  5 C  pz               289    -15.141360  6 C  pz         
[...]
  ----- ------------  ---------------      ----- ------------  ---------------
   114     -8.357005  3 O  s                  4      8.314732  1 O  s          
   169      8.114762  4 O  s                 59     -8.065420  2 O  s          
   112     -5.380149  3 O  s                  2      5.347286  1 O  s          
   167      5.231448  4 O  s                 57     -5.180845  2 O  s          
    67      4.924524  2 O  px               123      4.564690  3 O  py         

 Vector  323  Occ=0.000000D+00  E= 1.676109D+01
              MO Center=  6.2D-01,  9.7D-01, -1.3D+00, r^2= 4.1D+00
   Bfn.  Coefficient  Atom+Function         Bfn.  Coefficient  Atom+Function  
  ----- ------------  ---------------      ----- ------------  ---------------
   169     -8.393054  4 O  s                 59      8.282996  2 O  s          
     4      8.148630  1 O  s                114     -8.033950  3 O  s          
   167     -5.416910  4 O  s                 57      5.309323  2 O  s          
     2      5.264426  1 O  s                112     -5.146298  3 O  s          
    67     -4.723664  2 O  px               123      4.708854  3 O  py         

 Vector  324  Occ=0.000000D+00  E= 1.677561D+01
              MO Center=  6.3D-01,  1.0D+00, -1.3D+00, r^2= 4.1D+00
   Bfn.  Coefficient  Atom+Function         Bfn.  Coefficient  Atom+Function  
  ----- ------------  ---------------      ----- ------------  ---------------
   224     19.953222  5 C  s                279    -19.955770  6 C  s          
    59      6.392860  2 O  s                114     -6.335398  3 O  s          
     4     -6.236660  1 O  s                169      6.180586  4 O  s          
    57      6.104693  2 O  s                112     -6.064252  3 O  s          
     2     -6.007127  1 O  s                167      5.968228  4 O  s          

 Vector  325  Occ=0.000000D+00  E= 1.783004D+01
              MO Center=  6.2D-01,  1.0D+00, -1.3D+00, r^2= 3.8D+00
   Bfn.  Coefficient  Atom+Function         Bfn.  Coefficient  Atom+Function  
  ----- ------------  ---------------      ----- ------------  ---------------
   224     27.738850  5 C  s                279     27.733936  6 C  s          
   234     10.511240  5 C  pz               289    -10.517465  6 C  pz         
    67      6.029708  2 O  px               123      5.979458  3 O  py         
    13     -5.664871  1 O  py                64      5.685499  2 O  px         
   120      5.567072  3 O  py               177     -5.589099  4 O  px         

 Vector  326  Occ=0.000000D+00  E= 1.792513D+01
              MO Center=  6.1D-01,  9.8D-01, -1.3D+00, r^2= 3.8D+00
   Bfn.  Coefficient  Atom+Function         Bfn.  Coefficient  Atom+Function  
  ----- ------------  ---------------      ----- ------------  ---------------
   233     10.966993  5 C  py               287      9.568464  6 C  px         
    67      8.601276  2 O  px               177      7.828225  4 O  px         
   123      7.703732  3 O  py                13      7.596820  1 O  py         
    64      6.762742  2 O  px               179      6.525615  4 O  pz         
    14     -6.460738  1 O  pz               120      6.252455  3 O  py         

 Vector  327  Occ=0.000000D+00  E= 1.792610D+01
              MO Center=  6.3D-01,  9.8D-01, -1.3D+00, r^2= 3.8D+00
   Bfn.  Coefficient  Atom+Function         Bfn.  Coefficient  Atom+Function  
  ----- ------------  ---------------      ----- ------------  ---------------
   287     10.954193  6 C  px               233     -9.596134  5 C  py         
   123     -8.284327  3 O  py                13     -8.183721  1 O  py         
    67      8.088439  2 O  px               177      7.187780  4 O  px         
    64      6.536710  2 O  px               120     -6.539528  3 O  py         
   179      6.548750  4 O  pz                10     -6.493296  1 O  py         

 Vector  328  Occ=0.000000D+00  E= 1.824414D+01
              MO Center=  6.2D-01,  9.9D-01, -1.3D+00, r^2= 4.0D+00
   Bfn.  Coefficient  Atom+Function         Bfn.  Coefficient  Atom+Function  
  ----- ------------  ---------------      ----- ------------  ---------------
   224     30.024853  5 C  s                279    -30.030931  6 C  s          
   273      8.988415  5 C  fyyz             323      8.908111  6 C  fxxz       
   253      7.612621  5 C  dyy              305     -7.595902  6 C  dxx        
   231      5.630670  5 C  pz               286      5.631543  6 C  pz         
   176      5.505244  4 O  pz                11      5.364976  1 O  pz         

 Vector  329  Occ=0.000000D+00  E= 2.829502D+01
              MO Center=  6.2D-01,  9.9D-01, -1.3D+00, r^2= 2.3D+00
   Bfn.  Coefficient  Atom+Function         Bfn.  Coefficient  Atom+Function  
  ----- ------------  ---------------      ----- ------------  ---------------
   224     35.937415  5 C  s                279    -36.111441  6 C  s          
   222    -21.899216  5 C  s                277     21.470887  6 C  s          
   289    -13.854077  6 C  pz               234    -13.751807  5 C  pz         
   253     12.208157  5 C  dyy              305    -12.092599  6 C  dxx        
     4     11.067892  1 O  s                114     11.044575  3 O  s          

 Vector  330  Occ=0.000000D+00  E= 2.833052D+01
              MO Center=  6.2D-01,  9.9D-01, -1.3D+00, r^2= 2.2D+00
   Bfn.  Coefficient  Atom+Function         Bfn.  Coefficient  Atom+Function  
  ----- ------------  ---------------      ----- ------------  ---------------
   277     22.159005  6 C  s                222     21.735222  5 C  s          
   276     10.909166  6 C  s                221     10.699942  5 C  s          
    59    -10.189532  2 O  s                169    -10.168364  4 O  s          
     4     -9.948690  1 O  s                114     -9.976316  3 O  s          
   224      9.220748  5 C  s                 67      8.531956  2 O  px         


   alpha - beta orbital overlaps 
   ----------------------------- 


   alpha      1      2      3      4      5      6      7      8      9     10
    beta      1      2      3      4      5      6      7      8      9     10
 overlap   1.000  1.000  1.000  1.000  1.000  1.000  1.000  1.000  0.999  0.999


   alpha     11     12     13     14     15     16     17     18     19     20
    beta     11     12     13     14     15     16     17     18     19     20
 overlap   1.000  1.000  1.000  0.987  0.987  0.997  0.997  1.000  1.000  1.000


   alpha     21     22     23     24     25     26     27     28     29     30
    beta     21     22     23     24     25     26     27     28     29     30
 overlap   0.998  0.998  1.000  0.998  1.000  1.000  1.000  0.975  0.975  0.998


   alpha     31     32     33     34     35     36     37     38     39     40
    beta     31     32     33     34     35     36     37     38     39     40
 overlap   0.999  0.999  1.000  1.000  1.000  1.000  0.999  0.999  1.000  1.000


   alpha     41     42     43     44     45     46     47     48     49     50
    beta     41     42     43     44     45     46     47     48     49     50
 overlap   1.000  1.000  0.998  1.000  1.000  0.998  0.998  0.999  1.000  1.000


   alpha     51     52     53     54     55     56     57     58     59     60
    beta     51     52     53     54     55     56     57     58     59     60
 overlap   0.998  0.999  0.996  1.000  0.998  1.000  0.999  0.999  1.000  1.000


   alpha     61     62     63     64     65     66     67     68     69     70
    beta     61     62     63     64     65     66     67     68     69     70
 overlap   1.000  1.000  0.999  0.999  1.000  0.999  0.999  1.000  0.999  0.999


   alpha     71     72     73     74     75     76     77     78     79     80
    beta     71     72     73     74     75     76     77     78     79     80
 overlap   1.000  1.000  0.999  1.000  0.999  0.999  0.999  0.999  1.000  1.000


   alpha     81     82     83     84     85     86     87     88     89     90
    beta     81     82     83     84     86     87     85     88     89     91
 overlap   1.000  1.000  0.998  1.000  0.996  0.996  0.998  0.999  0.999  0.970


   alpha     91     92     93     94     95     96     97     98     99    100
    beta     92     93     90     94     95     96     97     98     99    100
 overlap   0.919  0.961  0.968  0.999  1.000  1.000  1.000  0.952  0.952  1.000


   alpha    101    102    103    104    105    106    107    108    109    110
    beta    101    102    103    104    105    106    107    108    109    110
 overlap   1.000  1.000  1.000  1.000  1.000  1.000  1.000  1.000  1.000  1.000


   alpha    111    112    113    114    115    116    117    118    119    120
    beta    111    112    113    114    115    116    117    118    119    120
 overlap   1.000  0.999  0.999  1.000  0.996  1.000  1.000  1.000  0.996  1.000


   alpha    121    122    123    124    125    126    127    128    129    130
    beta    121    122    123    124    125    126    127    128    129    131
 overlap   1.000  1.000  1.000  1.000  1.000  1.000  1.000  1.000  0.997  0.958


   alpha    131    132    133    134    135    136    137    138    139    140
    beta    132    130    133    134    135    136    137    138    140    139
 overlap   0.965  0.978  1.000  1.000  1.000  1.000  1.000  1.000  0.999  0.999


   alpha    141    142    143    144    145    146    147    148    149    150
    beta    141    142    143    144    145    146    147    148    149    150
 overlap   1.000  1.000  1.000  1.000  1.000  1.000  1.000  1.000  0.999  1.000


   alpha    151    152    153    154    155    156    157    158    159    160
    beta    151    152    153    154    155    156    157    158    159    160
 overlap   1.000  0.997  0.997  0.997  0.997  1.000  1.000  0.999  0.999  0.999


   alpha    161    162    163    164    165    166    167    168    169    170
    beta    161    162    163    164    165    166    167    168    169    170
 overlap   0.999  1.000  0.999  0.999  1.000  1.000  1.000  1.000  1.000  0.999


   alpha    171    172    173    174    175    176    177    178    179    180
    beta    171    172    173    174    175    176    177    178    179    180
 overlap   0.999  1.000  1.000  1.000  1.000  0.999  1.000  0.997  0.997  0.996


   alpha    181    182    183    184    185    186    187    188    189    190
    beta    181    182    183    184    185    186    187    188    189    190
 overlap   1.000  1.000  1.000  0.996  0.999  1.000  0.999  0.999  0.999  0.999


   alpha    191    192    193    194    195    196    197    198    199    200
    beta    191    192    193    194    195    196    197    198    199    200
 overlap   0.999  1.000  1.000  1.000  1.000  1.000  1.000  0.999  0.999  0.999


   alpha    201    202    203    204    205    206    207    208    209    210
    beta    201    202    203    204    205    206    207    208    209    210
 overlap   0.999  1.000  1.000  1.000  1.000  1.000  1.000  0.999  0.999  1.000


   alpha    211    212    213    214    215    216    217    218    219    220
    beta    211    212    213    214    215    216    217    218    219    220
 overlap   1.000  1.000  1.000  1.000  1.000  1.000  1.000  0.985  0.985  1.000


   alpha    221    222    223    224    225    226    227    228    229    230
    beta    221    222    223    224    225    226    227    228    229    230
 overlap   1.000  1.000  1.000  1.000  1.000  1.000  1.000  1.000  1.000  1.000


   alpha    231    232    233    234    235    236    237    238    239    240
    beta    231    232    233    234    235    236    237    238    239    240
 overlap   1.000  1.000  1.000  1.000  1.000  1.000  1.000  1.000  1.000  1.000


   alpha    241    242    243    244    245    246    247    248    249    250
    beta    241    242    243    244    245    246    247    248    249    250
 overlap   0.998  1.000  0.998  0.957  0.957  0.971  0.971  1.000  1.000  1.000


   alpha    251    252    253    254    255    256    257    258    259    260
    beta    251    252    253    254    255    256    257    258    259    260
 overlap   1.000  1.000  1.000  1.000  1.000  1.000  1.000  1.000  1.000  1.000


   alpha    261    262    263    264    265    266    267    268    269    270
    beta    261    262    263    264    265    266    267    268    269    270
 overlap   1.000  0.997  0.997  1.000  0.996  0.996  0.999  1.000  1.000  0.993


   alpha    271    272    273    274    275    276    277    278    279    280
    beta    271    272    273    274    275    276    277    278    279    280
 overlap   0.993  1.000  0.997  0.997  1.000  0.985  0.985  1.000  1.000  0.999


   alpha    281    282    283    284    285    286    287    288    289    290
    beta    281    282    283    284    285    286    287    288    289    291
 overlap   0.999  0.999  0.999  1.000  0.998  0.998  1.000  1.000  1.000  0.626


   alpha    291    292    293    294    295    296    297    298    299    300
    beta    290    292    293    294    295    296    297    298    299    300
 overlap   0.790  0.807  1.000  0.999  0.999  1.000  1.000  1.000  1.000  1.000


   alpha    301    302    303    304    305    306    307    308    309    310
    beta    301    302    303    304    305    306    307    308    309    310
 overlap   1.000  1.000  1.000  1.000  1.000  1.000  1.000  1.000  1.000  1.000


   alpha    311    312    313    314    315    316    317    318    319    320
    beta    311    312    313    314    315    316    317    318    319    320
 overlap   1.000  1.000  1.000  1.000  1.000  1.000  1.000  1.000  1.000  1.000


   alpha    321    322    323    324    325    326    327    328    329    330
    beta    321    322    323    324    325    326    327    328    329    330
 overlap   1.000  1.000  1.000  1.000  1.000  1.000  1.000  1.000  1.000  1.000


     --------------------------
     Expectation value of S2:  
     --------------------------
      <S2> =      0.7521 (Exact =     0.7500)


 center of mass
 --------------
 x =   1.17226538 y =   1.86526532 z =  -2.46359917

 moments of inertia (a.u.)
 ------------------
         624.330078593890           0.450222918208          23.771389132536
           0.450222918208         626.000804185061          -5.601808929066
          23.771389132536          -5.601808929066         297.997225147750

     Multipole analysis of the density
     ---------------------------------

     L   x y z        total         alpha         beta         nuclear
     -   - - -        -----         -----         ----         -------
     0   0 0 0     -1.000000    -23.000000    -22.000000     44.000000

     1   1 0 0     -1.172025    -26.961961    -25.789740     51.579677
     1   0 1 0     -1.864544    -42.900669    -41.035547     82.071671
     1   0 0 1      2.463654     56.662785     54.199232   -108.398364

     2   2 0 0    -31.612840    -85.356015    -81.662679    135.405853
     2   1 1 0     -2.177604    -50.170377    -47.991833     95.984606
     2   1 0 1      3.251810     72.758953     69.453369   -138.960512
     2   0 2 0    -33.689024   -133.324231   -127.555428    227.190634
     2   0 1 1      4.506688    104.196528     99.700208   -199.390048
     2   0 0 2    -41.308184   -280.315466   -266.193527    505.200809


 Task  times  cpu:       81.5s     wall:       83.5s


                                NWChem Input Module
                                -------------------


 Summary of allocated global arrays
-----------------------------------
  No active global arrays


MA_summarize_allocated_blocks: starting scan ...
heap block 'gridpts', handle 75, address 0x104d5058:
	type of elements:		double precision
	number of elements:		33554432
	address of client space:	0x104d50c0
	index for client space:		9581937
	total number of bytes:		268435568
MA_summarize_allocated_blocks: scan completed: 1 heap block, 0 stack blocks
MA usage statistics:

	allocation statistics:
					      heap	     stack
					      ----	     -----
	current number of blocks	         1	         0
	maximum number of blocks	        21	        53
	current total bytes		 268435568	         0
	maximum total bytes		 269962912	  40442360
	maximum total K-bytes		    269963	     40443
	maximum total M-bytes		       270	        41


                                     CITATION
                                     --------
                Please cite the following reference when publishing
                           results obtained with NWChem:

          E. Apra, E. J. Bylaska, W. A. de Jong, N. Govind, K. Kowalski,
       T. P. Straatsma, M. Valiev, H. J. J. van Dam, Y. Alexeev, J. Anchell,
       V. Anisimov, F. W. Aquino, R. Atta-Fynn, J. Autschbach, N. P. Bauman,
     J. C. Becca, D. E. Bernholdt, K. Bhaskaran-Nair, S. Bogatko, P. Borowski,
         J. Boschen, J. Brabec, A. Bruner, E. Cauet, Y. Chen, G. N. Chuev,
      C. J. Cramer, J. Daily, M. J. O. Deegan, T. H. Dunning Jr., M. Dupuis,
   K. G. Dyall, G. I. Fann, S. A. Fischer, A. Fonari, H. Fruchtl, L. Gagliardi,
      J. Garza, N. Gawande, S. Ghosh, K. Glaesemann, A. W. Gotz, J. Hammond,
       V. Helms, E. D. Hermes, K. Hirao, S. Hirata, M. Jacquelin, L. Jensen,
   B. G. Johnson, H. Jonsson, R. A. Kendall, M. Klemm, R. Kobayashi, V. Konkov,
      S. Krishnamoorthy, M. Krishnan, Z. Lin, R. D. Lins, R. J. Littlefield,
      A. J. Logsdail, K. Lopata, W. Ma, A. V. Marenich, J. Martin del Campo,
   D. Mejia-Rodriguez, J. E. Moore, J. M. Mullin, T. Nakajima, D. R. Nascimento,
    J. A. Nichols, P. J. Nichols, J. Nieplocha, A. Otero-de-la-Roza, B. Palmer,
    A. Panyala, T. Pirojsirikul, B. Peng, R. Peverati, J. Pittner, L. Pollack,
   R. M. Richard, P. Sadayappan, G. C. Schatz, W. A. Shelton, D. W. Silverstein,
   D. M. A. Smith, T. A. Soares, D. Song, M. Swart, H. L. Taylor, G. S. Thomas,
            V. Tipparaju, D. G. Truhlar, K. Tsemekhman, T. Van Voorhis,
      A. Vazquez-Mayagoitia, P. Verma, O. Villa, A. Vishnu, K. D. Vogiatzis,
        D. Wang, J. H. Weare, M. J. Williamson, T. L. Windus, K. Wolinski,
        A. T. Wong, Q. Wu, C. Yang, Q. Yu, M. Zacharias, Z. Zhang, Y. Zhao,
                                and R. J. Harrison
                        "NWChem: Past, present, and future
                         J. Chem. Phys. 152, 184102 (2020)
                               doi:10.1063/5.0004997

                                      AUTHORS
                                      -------
  E. Apra, E. J. Bylaska, N. Govind, K. Kowalski, M. Valiev, D. Mejia-Rodriguez,
       A. Kunitsa, N. P. Bauman, A. Panyala, W. A. de Jong, T. P. Straatsma,
   H. J. J. van Dam, D. Wang, T. L. Windus, J. Hammond, J. Autschbach, A. Woods,
    K. Bhaskaran-Nair, J. Brabec, K. Lopata, S. A. Fischer, S. Krishnamoorthy,
     M. Jacquelin, W. Ma, M. Klemm, O. Villa, Y. Chen, V. Anisimov, F. Aquino,
     S. Hirata, M. T. Hackler, E. Hermes, L. Jensen, J. E. Moore, J. C. Becca,
      V. Konjkov, T. Risthaus, M. Malagoli, A. Marenich, A. Otero-de-la-Roza,
        J. Mullin, P. Nichols, R. Peverati, J. Pittner, Y. Zhao, P.-D. Fan,
        A. Fonari, M. J. Williamson, R. J. Harrison, J. R. Rehr, M. Dupuis,
     D. Silverstein, D. M. A. Smith, J. Nieplocha, V. Tipparaju, M. Krishnan,
     B. E. Van Kuiken, A. Vazquez-Mayagoitia, M. Swart, Q. Wu, T. Van Voorhis,
     A. A. Auer, M. Nooijen, L. D. Crosby, E. Brown, G. Cisneros, G. I. Fann,
   H. Fruchtl, J. Garza, K. Hirao, R. A. Kendall, J. A. Nichols, K. Tsemekhman,
    K. Wolinski, J. Anchell, D. E. Bernholdt, P. Borowski, T. Clark, D. Clerc,
   H. Dachsel, M. J. O. Deegan, K. Dyall, D. Elwood, E. Glendening, M. Gutowski,
   A. C. Hess, J. Jaffe, B. G. Johnson, J. Ju, R. Kobayashi, R. Kutteh, Z. Lin,
   R. Littlefield, X. Long, B. Meng, T. Nakajima, S. Niu, L. Pollack, M. Rosing,
   K. Glaesemann, G. Sandrone, M. Stave, H. Taylor, G. Thomas, J. H. van Lenthe,
                               A. T. Wong, Z. Zhang.

 Total times  cpu:       81.6s     wall:       83.7s
