 argument  1 = m1e/mol.nwi
                                         
                                         


             Northwest Computational Chemistry Package (NWChem) 7.2.2
             --------------------------------------------------------


                    Environmental Molecular Sciences Laboratory
                       Pacific Northwest National Laboratory
                                Richland, WA 99352

                              Copyright (c) 1994-2022
                       Pacific Northwest National Laboratory
                            Battelle Memorial Institute

             NWChem is an open-source computational chemistry package
                        distributed under the terms of the
                      Educational Community License (ECL) 2.0
             A copy of the license is included with this distribution
                              in the LICENSE.TXT file

                                  ACKNOWLEDGMENT
                                  --------------

            This software and its documentation were developed at the
            EMSL at Pacific Northwest National Laboratory, a multiprogram
            national laboratory, operated for the U.S. Department of Energy
            by Battelle under Contract Number DE-AC05-76RL01830. Support
            for this work was provided by the Department of Energy Office
            of Biological and Environmental Research, Office of Basic
            Energy Sciences, and the Office of Advanced Scientific Computing.


           Job information
           ---------------

    hostname        = r272.ib.bridges2.psc.edu
    program         = nwchem
    date            = Tue Oct  1 15:30:35 2024

    compiled        = Mon_Mar_18_17:03:37_2024
    source          = /ocean/projects/pscstaff/mmadrid/nwchem-7.2.2
    nwchem branch   = 7.2.2
    nwchem revision = 74936fb9
    ga revision     = 5.8.0
    use scalapack   = F
    input           = m1e/mol.nwi
    prefix          = dft.
    data base       = .//dft.db
    status          = startup
    nproc           =       15
    time left       =     -1s



           Memory information
           ------------------

    heap     =   67108864 doubles =    512.0 Mbytes
    stack    =   67108861 doubles =    512.0 Mbytes
    global   =  134217728 doubles =   1024.0 Mbytes (distinct from heap & stack)
    total    =  268435453 doubles =   2048.0 Mbytes
    verify   = yes
    hardfail = no 


           Directory information
           ---------------------

  0 permanent = ./
  0 scratch   = /jet/home/hmt47/nwchem_scratch/




                                NWChem Input Module
                                -------------------


  library name resolved from: environment
  library file name is: </opt/packages/nwchem/nwchem7.2.2/share/nwchem/libraries/>
  


 Summary of "ao basis" -> "" (cartesian)
 ------------------------------------------------------------------------------
       Tag                 Description            Shells   Functions and Types
 ---------------- ------------------------------  ------  ---------------------
 *                        aug-cc-pVTZ                 on all atoms 


  pbe96 is a nonlocal functional; adding pw91lda local functional. 

 Scaling coordinates for geometry "geometry" by  1.889725989
 (inverse scale =  0.529177249)



                             Geometry "geometry" -> ""
                             -------------------------

 Output coordinates in angstroms (scale by  1.889725989 to convert to a.u.)

  No.       Tag          Charge          X              Y              Z
 ---- ---------------- ---------- -------------- -------------- --------------
    1 P                   15.0000     0.00016271    -0.00062972    -0.03371994
    2 O                    8.0000    -0.00147621     1.52022332    -0.55910011
    3 O                    8.0000     1.31267574    -0.75474270    -0.57897002
    4 O                    8.0000     0.00482597    -0.01336791     1.57534523
    5 O                    8.0000    -1.31526221    -0.75473398    -0.57191515

      Atomic Mass 
      ----------- 

      P                 30.973760
      O                 15.994910


 Effective nuclear repulsion energy (a.u.)     235.2016964855

            Nuclear Dipole moment (a.u.) 
            ----------------------------
        X                 Y               Z
 ---------------- ---------------- ----------------
     0.0161514313    -0.0574778301    -2.9912841170


            XYZ format geometry
            -------------------
     5
 geometry
 P                     0.00016271    -0.00062972    -0.03371994
 O                    -0.00147621     1.52022332    -0.55910011
 O                     1.31267574    -0.75474270    -0.57897002
 O                     0.00482597    -0.01336791     1.57534523
 O                    -1.31526221    -0.75473398    -0.57191515

 ==============================================================================
                                internuclear distances
 ------------------------------------------------------------------------------
       center one      |      center two      | atomic units |  angstroms
 ------------------------------------------------------------------------------
    2 O                |   1 P                |     3.04065  |     1.60904
    3 O                |   1 P                |     3.04045  |     1.60894
    4 O                |   1 P                |     3.04080  |     1.60912
    5 O                |   1 P                |     3.04045  |     1.60893
 ------------------------------------------------------------------------------
                         number of included internuclear distances:          4
 ==============================================================================



 ==============================================================================
                                 internuclear angles
 ------------------------------------------------------------------------------
        center 1       |       center 2       |       center 3       |  degrees
 ------------------------------------------------------------------------------
    2 O                |   1 P                |   3 O                |   109.46
    2 O                |   1 P                |   4 O                |   109.51
    2 O                |   1 P                |   5 O                |   109.45
    3 O                |   1 P                |   4 O                |   109.44
    3 O                |   1 P                |   5 O                |   109.51
    4 O                |   1 P                |   5 O                |   109.46
 ------------------------------------------------------------------------------
                            number of included internuclear angles:          6
 ==============================================================================




                                 NWChem DFT Module
                                 -----------------


                      Basis "ao basis" -> "ao basis" (cartesian)
                      -----
  P (Phosphorous)
  ---------------
            Exponent  Coefficients 
       -------------- ---------------------------------------------------------
  1 S  3.12400000E+05  0.000058
  1 S  4.68000000E+04  0.000448
  1 S  1.06500000E+04  0.002349
  1 S  3.01800000E+03  0.009783
  1 S  9.86800000E+02  0.034147
  1 S  3.57400000E+02  0.100204
  1 S  1.39600000E+02  0.234372
  1 S  5.76300000E+01  0.382434
  1 S  2.46000000E+01  0.318088
  1 S  1.01200000E+01  0.070779
  1 S  4.28300000E+00 -0.001818
  1 S  1.80500000E+00  0.002162
  1 S  2.78200000E-01  0.000432

  2 S  3.12400000E+05 -0.000016
  2 S  4.68000000E+04 -0.000122
  2 S  1.06500000E+04 -0.000640
  2 S  3.01800000E+03 -0.002674
  2 S  9.86800000E+02 -0.009498
  2 S  3.57400000E+02 -0.028935
  2 S  1.39600000E+02 -0.074512
  2 S  5.76300000E+01 -0.149938
  2 S  2.46000000E+01 -0.189467
  2 S  1.01200000E+01  0.036327
  2 S  4.28300000E+00  0.528816
  2 S  1.80500000E+00  0.519115
  2 S  2.78200000E-01 -0.009257

  3 S  3.12400000E+05  0.000004
  3 S  4.68000000E+04  0.000033
  3 S  1.06500000E+04  0.000176
  3 S  3.01800000E+03  0.000734
  3 S  9.86800000E+02  0.002618
  3 S  3.57400000E+02  0.007979
  3 S  1.39600000E+02  0.020794
  3 S  5.76300000E+01  0.042445
  3 S  2.46000000E+01  0.056344
  3 S  1.01200000E+01 -0.012736
  3 S  4.28300000E+00 -0.196495
  3 S  1.80500000E+00 -0.353555
  3 S  2.78200000E-01  0.700912

  4 S  6.15800000E-01  1.000000

  5 S  1.05500000E-01  1.000000

  6 S  4.09000000E-02  1.000000

  7 P  5.04900000E+02  0.002337
  7 P  1.19400000E+02  0.018541
  7 P  3.79600000E+01  0.084969
  7 P  1.39500000E+01  0.244615
  7 P  5.45700000E+00  0.422766
  7 P  2.17700000E+00  0.368439
  7 P  2.87700000E-01 -0.003790

  8 P  5.04900000E+02 -0.000555
  8 P  1.19400000E+02 -0.004459
  8 P  3.79600000E+01 -0.020635
  8 P  1.39500000E+01 -0.061769
  8 P  5.45700000E+00 -0.108924
  8 P  2.17700000E+00 -0.105599
  8 P  2.87700000E-01  0.576981

  9 P  8.01000000E-01  1.000000

 10 P  9.71400000E-02  1.000000

 11 P  3.07000000E-02  1.000000

 12 D  2.16000000E-01  1.000000

 13 D  6.52000000E-01  1.000000

 14 D  7.75000000E-02  1.000000

 15 F  4.52000000E-01  1.000000

 16 F  1.65000000E-01  1.000000

  O (Oxygen)
  ----------
            Exponent  Coefficients 
       -------------- ---------------------------------------------------------
  1 S  1.53300000E+04  0.000508
  1 S  2.29900000E+03  0.003929
  1 S  5.22400000E+02  0.020243
  1 S  1.47300000E+02  0.079181
  1 S  4.75500000E+01  0.230687
  1 S  1.67600000E+01  0.433118
  1 S  6.20700000E+00  0.350260
  1 S  6.88200000E-01 -0.008154

  2 S  1.53300000E+04 -0.000115
  2 S  2.29900000E+03 -0.000895
  2 S  5.22400000E+02 -0.004636
  2 S  1.47300000E+02 -0.018724
  2 S  4.75500000E+01 -0.058463
  2 S  1.67600000E+01 -0.136463
  2 S  6.20700000E+00 -0.175740
  2 S  6.88200000E-01  0.603418

  3 S  1.75200000E+00  1.000000

  4 S  2.38400000E-01  1.000000

  5 S  7.37600000E-02  1.000000

  6 P  3.44600000E+01  0.015928
  6 P  7.74900000E+00  0.099740
  6 P  2.28000000E+00  0.310492

  7 P  7.15600000E-01  1.000000

  8 P  2.14000000E-01  1.000000

  9 P  5.97400000E-02  1.000000

 10 D  2.31400000E+00  1.000000

 11 D  6.45000000E-01  1.000000

 12 D  2.14000000E-01  1.000000

 13 F  1.42800000E+00  1.000000

 14 F  5.00000000E-01  1.000000



 Summary of "ao basis" -> "ao basis" (cartesian)
 ------------------------------------------------------------------------------
       Tag                 Description            Shells   Functions and Types
 ---------------- ------------------------------  ------  ---------------------
 P                        aug-cc-pVTZ               16       59   6s5p3d2f
 O                        aug-cc-pVTZ               14       55   5s4p3d2f




 Summary of "ao basis" -> "ao basis" (cartesian)
 ------------------------------------------------------------------------------
       Tag                 Description            Shells   Functions and Types
 ---------------- ------------------------------  ------  ---------------------
 P                        aug-cc-pVTZ               16       59   6s5p3d2f
 O                        aug-cc-pVTZ               14       55   5s4p3d2f


  Caching 1-el integrals 

            General Information
            -------------------
          SCF calculation type: DFT
          Wavefunction type:  closed shell.
          No. of atoms     :     5
          No. of electrons :    48
           Alpha electrons :    24
            Beta electrons :    24
          Charge           :    -1
          Spin multiplicity:     1
          Use of symmetry is: off; symmetry adaption is: off
          Maximum number of iterations: 100
          AO basis - number of functions:   279
                     number of shells:    72
          Convergence on energy requested:  1.00D-06
          Convergence on density requested:  1.00D-05
          Convergence on gradient requested:  5.00D-04

              XC Information
              --------------
          PerdewBurkeErnzerhof Exchange Functional  1.000          
            Perdew 1991 LDA Correlation Functional  1.000 local    
           PerdewBurkeErnz. Correlation Functional  1.000 non-local

             Grid Information
             ----------------
          Grid used for XC integration:  medium    
          Radial quadrature: Mura-Knowles        
          Angular quadrature: Lebedev. 
          Tag              B.-S. Rad. Rad. Pts. Rad. Cut. Ang. Pts.
          ---              ---------- --------- --------- ---------
          P                   1.00       88          10.0       590
          O                   0.60       49          11.0       434
          Grid pruning is: on 
          Number of quadrature shells:   284
          Spatial weights used:  Erf1

          Convergence Information
          -----------------------
          Convergence aids based upon iterative change in 
          total energy or number of iterations. 
          Levelshifting, if invoked, occurs when the 
          HOMO/LUMO gap drops below (HL_TOL):  1.00D-02
          DIIS, if invoked, will attempt to extrapolate 
          using up to (NFOCK): 10 stored Fock matrices.

                    Damping(40%)  Levelshifting(0.0)       DIIS
                  --------------- ------------------- ---------------
          dE  on:    start            0.00D+00            start   
          dE off:  100 iters          0.00D+00          100 iters 


      Screening Tolerance Information
      -------------------------------
          Density screening/tol_rho:  1.00D-10
          AO Gaussian exp screening on grid/accAOfunc:  14
          CD Gaussian exp screening on grid/accCDfunc:  20
          XC Gaussian exp screening on grid/accXCfunc:  20
          Schwarz screening/accCoul:  1.00D-08


 Forcing the number of linearly dependent vectors to be  0

      Superposition of Atomic Density Guess
      -------------------------------------

 Sum of atomic energies:        -639.78286225
   Time after variat. SCF:      0.5
   Time prior to 1st pass:      0.5

 Grid_pts file          = /jet/home/hmt47/nwchem_scratch//dft.gridpts.00
 Record size in doubles =  12289        No. of grid_pts per rec  =   3070
 Max. records in memory =      5        Max. recs in file   =  67550051

 Grid integrated density:      46.999999506126
 Requested integration accuracy:   0.10E-05

           Memory utilization after 1st SCF pass: 
           Heap Space remaining (MW):       33.36            33363912
          Stack Space remaining (MW):       67.11            67107364

   convergence    iter        energy       DeltaE   RMS-Dens  Diis-err    time
 ---------------- ----- ----------------- --------- --------- ---------  ------
 d=40,ls=0.0,diis     1   -642.3934247021 -8.78D+02  1.13D-02  3.41D+01     1.0
 Grid integrated density:      47.599999151789
 Requested integration accuracy:   0.10E-05
 d=40,ls=0.0,diis     2   -642.1370501780  2.56D-01  8.89D-03  5.85D+00     3.7
 Grid integrated density:      47.839999398793
 Requested integration accuracy:   0.10E-05
 d=40,ls=0.0,diis     3   -641.7284843184  4.09D-01  4.50D-03  2.85D+00     6.6
 Grid integrated density:      47.935999022166
 Requested integration accuracy:   0.10E-05
 d=40,ls=0.0,diis     4   -641.8228539626 -9.44D-02  3.82D-03  1.30D+00     9.2
 Grid integrated density:      47.974399087675
 Requested integration accuracy:   0.10E-05
 d=40,ls=0.0,diis     5   -641.9066061171 -8.38D-02  3.74D-03  4.90D-01    11.9
 Grid integrated density:      47.989759202937
 Requested integration accuracy:   0.10E-05
 d=40,ls=0.0,diis     6   -641.9568574990 -5.03D-02  3.32D-03  1.73D-01    14.5
 Grid integrated density:      47.995903170531
 Requested integration accuracy:   0.10E-05
  Resetting Diis
 d=40,ls=0.0,diis     7   -641.9361643442  2.07D-02  3.75D-03  3.20D-01    17.2
 Grid integrated density:      47.998361086295
 Requested integration accuracy:   0.10E-05
 d=40,ls=0.0,diis     8   -641.9756591865 -3.95D-02  3.84D-03  7.76D-02    19.8
 Grid integrated density:      47.999344161407
 Requested integration accuracy:   0.10E-05
 d=40,ls=0.0,diis     9   -641.7558734251  2.20D-01  2.84D-03  1.49D+00    22.5
 Grid integrated density:      47.999737388869
 Requested integration accuracy:   0.10E-05
 d=40,ls=0.0,diis    10   -641.8666642928 -1.11D-01  3.12D-03  8.20D-01    25.1
 Grid integrated density:      47.999894633312
 Requested integration accuracy:   0.10E-05
 d=40,ls=0.0,diis    11   -641.9243585602 -5.77D-02  3.64D-03  4.24D-01    28.1
 d=40,ls=0.0,diis    12   -641.9340754724 -9.72D-03  3.16D-03  3.56D-01    31.0
 d=40,ls=0.0,diis    13   -641.9431809556 -9.11D-03  1.52D-03  2.99D-01    33.9
 d=40,ls=0.0,diis    14   -641.9493159572 -6.14D-03  1.23D-03  2.61D-01    36.7
 d=40,ls=0.0,diis    15   -641.9502745310 -9.59D-04  2.86D-04  2.51D-01    39.4
 d=40,ls=0.0,diis    16   -641.9487278861  1.55D-03  1.29D-03  2.60D-01    42.1
 d=40,ls=0.0,diis    17   -641.9554066961 -6.68D-03  4.19D-04  2.16D-01    45.0
 d=40,ls=0.0,diis    18   -641.9530025513  2.40D-03  4.61D-03  2.32D-01    47.8
 d=40,ls=0.0,diis    19   -641.9238519594  2.92D-02  3.00D-03  4.08D-01    50.6
 d=40,ls=0.0,diis    20   -641.9426865171 -1.88D-02  3.33D-03  2.99D-01    53.8
 d=40,ls=0.0,diis    21   -641.9448247231 -2.14D-03  3.59D-03  2.69D-01    56.6
 d=40,ls=0.0,diis    22   -641.9732080269 -2.84D-02  3.31D-03  1.04D-01    59.4
 d=40,ls=0.0,diis    23   -641.9788890028 -5.68D-03  3.89D-03  7.44D-02    62.1
 d=40,ls=0.0,diis    24   -641.9647317570  1.42D-02  3.50D-03  1.58D-01    64.9
 d=40,ls=0.0,diis    25   -641.9895619333 -2.48D-02  3.50D-03  1.46D-02    67.7
 d=40,ls=0.0,diis    26   -641.9786539962  1.09D-02  3.54D-03  7.83D-02    70.5
 d=40,ls=0.0,diis    27   -641.9678976152  1.08D-02  3.72D-03  1.33D-01    73.3
 d=40,ls=0.0,diis    28   -641.9700737149 -2.18D-03  3.66D-03  1.22D-01    76.1
 d=40,ls=0.0,diis    29   -641.9812174006 -1.11D-02  3.63D-03  6.38D-02    78.8
 d=40,ls=0.0,diis    30   -641.9793032722  1.91D-03  3.54D-03  7.32D-02    81.7
 d=40,ls=0.0,diis    31   -641.9789842408  3.19D-04  3.00D-03  7.48D-02    84.5
 d=40,ls=0.0,diis    32   -641.9659726172  1.30D-02  1.09D-03  1.46D-01    87.3
 d=40,ls=0.0,diis    33   -641.9504063576  1.56D-02  4.28D-03  2.40D-01    90.1
 d=40,ls=0.0,diis    34   -641.9701023705 -1.97D-02  2.28D-03  1.28D-01    92.9
 d=40,ls=0.0,diis    35   -641.9410625846  2.90D-02  3.11D-03  2.76D-01    95.6
 d=40,ls=0.0,diis    36   -641.9679396294 -2.69D-02  1.84D-03  1.36D-01    98.4
 d=40,ls=0.0,diis    37   -641.9473200395  2.06D-02  1.44D-03  2.61D-01   101.2
 d=40,ls=0.0,diis    38   -641.9588311230 -1.15D-02  4.42D-03  1.92D-01   104.0
 d=40,ls=0.0,diis    39   -641.9753868498 -1.66D-02  3.63D-03  1.00D-01   106.7
 d=40,ls=0.0,diis    40   -641.9797148068 -4.33D-03  3.38D-03  7.29D-02   109.5
 d=40,ls=0.0,diis    41   -641.9775579085  2.16D-03  2.21D-03  8.25D-02   112.3
 d=40,ls=0.0,diis    42   -641.9594997444  1.81D-02  3.93D-03  1.87D-01   115.0
 d=40,ls=0.0,diis    43   -641.9849927374 -2.55D-02  3.61D-03  4.21D-02   117.8
 d=40,ls=0.0,diis    44   -641.9721302589  1.29D-02  3.67D-03  1.14D-01   120.5
 d=40,ls=0.0,diis    45   -641.9825896296 -1.05D-02  2.26D-03  5.58D-02   123.3
 d=40,ls=0.0,diis    46   -641.9727770633  9.81D-03  3.63D-03  1.07D-01   126.1
 d=40,ls=0.0,diis    47   -641.9756614198 -2.88D-03  2.96D-03  9.25D-02   128.8
 d=40,ls=0.0,diis    48   -641.9719251831  3.74D-03  2.09D-03  1.15D-01   131.5
 d=40,ls=0.0,diis    49   -641.9860551281 -1.41D-02  3.64D-03  2.35D-02   134.3
 d=40,ls=0.0,diis    50   -641.9682549611  1.78D-02  2.56D-03  1.33D-01   137.0
 d=40,ls=0.0,diis    51   -641.9830591328 -1.48D-02  3.29D-03  4.45D-02   139.8
 d=40,ls=0.0,diis    52   -641.9529145690  3.01D-02  1.73D-03  2.28D-01   142.5
 d=40,ls=0.0,diis    53   -641.9368588838  1.61D-02  2.74D-03  3.21D-01   145.2
 d=40,ls=0.0,diis    54   -641.9700198935 -3.32D-02  3.71D-03  1.30D-01   148.0
 d=40,ls=0.0,diis    55   -641.9725364003 -2.52D-03  2.84D-03  1.11D-01   150.8
 d=40,ls=0.0,diis    56   -641.9646901249  7.85D-03  2.12D-03  1.59D-01   153.6
 d=40,ls=0.0,diis    57   -641.9778605480 -1.32D-02  3.45D-03  7.56D-02   156.2
 d=40,ls=0.0,diis    58   -641.9656703854  1.22D-02  2.78D-03  1.50D-01   158.8
 d=40,ls=0.0,diis    59   -641.9405266651  2.51D-02  3.07D-03  2.80D-01   161.6
 d=40,ls=0.0,diis    60   -641.9767644663 -3.62D-02  1.47D-03  8.72D-02   164.2
 d=40,ls=0.0,diis    61   -641.9859677988 -9.20D-03  4.31D-03  2.07D-02   166.9
 d=40,ls=0.0,diis    62   -641.9900864890 -4.12D-03  3.93D-03  1.34D-02   169.7
 d=40,ls=0.0,diis    63   -641.9874333071  2.65D-03  3.29D-03  3.04D-02   172.4
 d=40,ls=0.0,diis    64   -641.9639842406  2.34D-02  1.31D-03  1.57D-01   175.1
 d=40,ls=0.0,diis    65   -641.9337672319  3.02D-02  9.04D-04  3.21D-01   177.8
 d=40,ls=0.0,diis    66   -641.9305343558  3.23D-03  1.97D-03  3.48D-01   180.4
 d=40,ls=0.0,diis    67   -641.9280441997  2.49D-03  3.03D-03  3.66D-01   183.1
 d=40,ls=0.0,diis    68   -641.9329009445 -4.86D-03  3.96D-03  3.22D-01   185.8
 d=40,ls=0.0,diis    69   -641.9629975661 -3.01D-02  3.10D-03  1.63D-01   188.5
 d=40,ls=0.0,diis    70   -641.9646375576 -1.64D-03  2.50D-03  1.58D-01   191.2
 d=40,ls=0.0,diis    71   -641.9498890435  1.47D-02  4.11D-03  2.39D-01   193.9
 d=40,ls=0.0,diis    72   -641.9846351148 -3.47D-02  3.13D-03  4.73D-02   196.5
 d=40,ls=0.0,diis    73   -641.9673046209  1.73D-02  3.34D-03  1.43D-01   199.2
 d=40,ls=0.0,diis    74   -641.9526477959  1.47D-02  2.39D-03  2.30D-01   201.9
 d=40,ls=0.0,diis    75   -641.9355462061  1.71D-02  2.13D-03  3.14D-01   204.6
 d=40,ls=0.0,diis    76   -641.9256579175  9.89D-03  1.57D-03  3.68D-01   207.2
 d=40,ls=0.0,diis    77   -641.9131071126  1.26D-02  2.04D-03  4.34D-01   210.1
 d=40,ls=0.0,diis    78   -641.9358675514 -2.28D-02  1.39D-03  3.21D-01   212.8
 d=40,ls=0.0,diis    79   -641.9552262766 -1.94D-02  3.36D-03  2.14D-01   215.4
 d=40,ls=0.0,diis    80   -641.9551395155  8.68D-05  3.09D-03  2.17D-01   218.1
 d=40,ls=0.0,diis    81   -641.9454820917  9.66D-03  2.71D-03  2.75D-01   220.8
 d=40,ls=0.0,diis    82   -641.9731196836 -2.76D-02  4.04D-03  1.13D-01   223.5
 d=40,ls=0.0,diis    83   -641.9494957057  2.36D-02  2.97D-03  2.61D-01   226.1
 d=40,ls=0.0,diis    84   -641.9731634164 -2.37D-02  3.55D-03  1.13D-01   228.8
 d=40,ls=0.0,diis    85   -641.9606735149  1.25D-02  3.34D-03  1.83D-01   231.5
 d=40,ls=0.0,diis    86   -641.9815924162 -2.09D-02  3.11D-03  6.18D-02   234.2
 d=40,ls=0.0,diis    87   -641.9554546565  2.61D-02  2.56D-03  2.02D-01   236.9
 d=40,ls=0.0,diis    88   -641.9563290712 -8.74D-04  3.76D-03  2.06D-01   239.5
 d=40,ls=0.0,diis    89   -641.9644825822 -8.15D-03  3.05D-03  1.57D-01   242.3
 d=40,ls=0.0,diis    90   -641.9809380787 -1.65D-02  3.04D-03  6.30D-02   245.0
 d=40,ls=0.0,diis    91   -641.9716790599  9.26D-03  3.87D-03  1.14D-01   247.6
 d=40,ls=0.0,diis    92   -641.9696764241  2.00D-03  3.25D-03  1.24D-01   250.3
 d=40,ls=0.0,diis    93   -641.9798529408 -1.02D-02  2.75D-03  7.11D-02   253.0
 d=40,ls=0.0,diis    94   -641.9496613287  3.02D-02  2.79D-03  2.33D-01   255.7
 d=40,ls=0.0,diis    95   -641.9586556800 -8.99D-03  1.56D-03  1.88D-01   258.4
 d=40,ls=0.0,diis    96   -641.9590074395 -3.52D-04  3.60D-03  1.93D-01   261.0
 d=40,ls=0.0,diis    97   -641.9581211348  8.86D-04  2.81D-03  1.92D-01   271.0
 d=40,ls=0.0,diis    98   -641.9847132379 -2.66D-02  3.58D-03  3.66D-02   274.0
 d=40,ls=0.0,diis    99   -641.9773342403  7.38D-03  2.96D-03  8.24D-02   276.7
 d=40,ls=0.0,diis   100   -641.9621672972  1.52D-02  2.83D-03  1.69D-01   281.8

      Calculation failed to converge
      ------------------------------



         Total DFT energy =     -641.962167297179
      One electron energy =    -1364.226551467941
           Coulomb energy =      544.287712341292
    Exchange-Corr. energy =      -57.225024655998
 Nuclear repulsion energy =      235.201696485467

 Numeric. integr. density =       47.999999476498

     Total iterative time =    281.5s



                       DFT Final Molecular Orbital Analysis
                       ------------------------------------

 Vector    1  Occ=2.000000D+00  E=-7.624563D+01
              MO Center=  1.6D-04, -6.3D-04, -3.4D-02, r^2= 4.1D-03
   Bfn.  Coefficient  Atom+Function         Bfn.  Coefficient  Atom+Function  
  ----- ------------  ---------------      ----- ------------  ---------------
     1      1.004371  1 P  s                  3      0.038037  1 P  s          
     2      0.028753  1 P  s          

 Vector    2  Occ=2.000000D+00  E=-1.860021D+01
              MO Center= -1.3D+00, -7.5D-01, -5.7D-01, r^2= 1.5D-02
   Bfn.  Coefficient  Atom+Function         Bfn.  Coefficient  Atom+Function  
  ----- ------------  ---------------      ----- ------------  ---------------
   225      0.977952  5 O  s                227      0.062798  5 O  s          
     5     -0.056366  1 P  s                229     -0.049246  5 O  s          
   228     -0.035966  5 O  s                236      0.025475  5 O  px         

 Vector    3  Occ=2.000000D+00  E=-1.859803D+01
              MO Center=  2.1D-03,  1.5D+00, -5.6D-01, r^2= 3.8D-02
   Bfn.  Coefficient  Atom+Function         Bfn.  Coefficient  Atom+Function  
  ----- ------------  ---------------      ----- ------------  ---------------
    60      0.976381  2 O  s                 62      0.062750  2 O  s          
     5     -0.059858  1 P  s                115      0.051536  3 O  s          
    64     -0.050050  2 O  s                 63     -0.034566  2 O  s          
    72     -0.030514  2 O  py                92      0.026569  2 O  dyy        
    52      0.025927  1 P  fxxz       

 Vector    4  Occ=2.000000D+00  E=-1.859790D+01
              MO Center=  1.3D+00, -7.5D-01, -5.8D-01, r^2= 4.6D-02
   Bfn.  Coefficient  Atom+Function         Bfn.  Coefficient  Atom+Function  
  ----- ------------  ---------------      ----- ------------  ---------------
   115      0.975767  3 O  s                117      0.062645  3 O  s          
     5     -0.054908  1 P  s                 60     -0.051219  2 O  s          
   119     -0.048814  3 O  s                170      0.040174  4 O  s          
   118     -0.036394  3 O  s                126     -0.025017  3 O  px         

 Vector    5  Occ=2.000000D+00  E=-1.859774D+01
              MO Center=  7.1D-03, -1.4D-02,  1.6D+00, r^2= 3.1D-02
   Bfn.  Coefficient  Atom+Function         Bfn.  Coefficient  Atom+Function  
  ----- ------------  ---------------      ----- ------------  ---------------
   170      0.976822  4 O  s                172      0.062673  4 O  s          
     5     -0.052116  1 P  s                174     -0.048159  4 O  s          
   115     -0.040201  3 O  s                173     -0.037508  4 O  s          
   183     -0.029755  4 O  pz               204      0.025836  4 O  dzz        

 Vector    6  Occ=2.000000D+00  E=-6.227055D+00
              MO Center=  1.5D-04, -6.4D-04, -3.4D-02, r^2= 9.1D-02
   Bfn.  Coefficient  Atom+Function         Bfn.  Coefficient  Atom+Function  
  ----- ------------  ---------------      ----- ------------  ---------------
     2      0.901940  1 P  s                  4      0.105327  1 P  s          
     3     -0.053268  1 P  s          

 Vector    7  Occ=2.000000D+00  E=-4.443895D+00
              MO Center=  8.6D-05, -6.3D-04, -3.4D-02, r^2= 8.3D-02
   Bfn.  Coefficient  Atom+Function         Bfn.  Coefficient  Atom+Function  
  ----- ------------  ---------------      ----- ------------  ---------------
     7      0.810375  1 P  px                 8      0.684238  1 P  py         
    10      0.191076  1 P  px                11      0.161310  1 P  py         
     9     -0.115387  1 P  pz                45     -0.080369  1 P  fxzz       
    40     -0.079412  1 P  fxxx              43     -0.079436  1 P  fxyy       
    48     -0.067889  1 P  fyzz              41     -0.067237  1 P  fxxy       

 Vector    8  Occ=2.000000D+00  E=-4.443853D+00
              MO Center=  2.1D-04, -6.7D-04, -3.4D-02, r^2= 8.3D-02
   Bfn.  Coefficient  Atom+Function         Bfn.  Coefficient  Atom+Function  
  ----- ------------  ---------------      ----- ------------  ---------------
     9      0.913040  1 P  pz                 8      0.478851  1 P  py         
     7     -0.274327  1 P  px                12      0.215251  1 P  pz         
    11      0.112885  1 P  py                47     -0.091388  1 P  fyyz       
    42     -0.089740  1 P  fxxz              49     -0.089154  1 P  fzzz       
    10     -0.064687  1 P  px                46     -0.047422  1 P  fyyy       

 Vector    9  Occ=2.000000D+00  E=-4.443826D+00
              MO Center=  1.9D-04, -5.9D-04, -3.4D-02, r^2= 8.3D-02
   Bfn.  Coefficient  Atom+Function         Bfn.  Coefficient  Atom+Function  
  ----- ------------  ---------------      ----- ------------  ---------------
     8     -0.663870  1 P  py                 7      0.637398  1 P  px         
     9      0.539675  1 P  pz                11     -0.156530  1 P  py         
    10      0.150307  1 P  px                12      0.127246  1 P  pz         
    41      0.066023  1 P  fxxy              48      0.065860  1 P  fyzz       
    46      0.064770  1 P  fyyy              45     -0.063214  1 P  fxzz       

 Vector   10  Occ=2.000000D+00  E=-7.707321D-01
              MO Center= -8.4D-03, -5.7D-03, -4.0D-02, r^2= 2.1D+00
   Bfn.  Coefficient  Atom+Function         Bfn.  Coefficient  Atom+Function  
  ----- ------------  ---------------      ----- ------------  ---------------
     3      0.283232  1 P  s                226      0.212146  5 O  s          
    61      0.208130  2 O  s                116      0.208145  3 O  s          
   171      0.207161  4 O  s                228      0.112659  5 O  s          
    63      0.110117  2 O  s                118      0.110116  3 O  s          
   173      0.109502  4 O  s                  4      0.065610  1 P  s          

 Vector   11  Occ=2.000000D+00  E=-6.888196D-01
              MO Center= -7.1D-01, -4.1D-01, -4.1D-01, r^2= 1.7D+00
   Bfn.  Coefficient  Atom+Function         Bfn.  Coefficient  Atom+Function  
  ----- ------------  ---------------      ----- ------------  ---------------
   226      0.430585  5 O  s                228      0.277045  5 O  s          
   116     -0.164402  3 O  s                 61     -0.162312  2 O  s          
    16      0.134128  1 P  px                10     -0.125529  1 P  px         
   227      0.121418  5 O  s                171     -0.109307  4 O  s          
   229      0.109689  5 O  s                118     -0.105654  3 O  s          

 Vector   12  Occ=2.000000D+00  E=-6.877824D-01
              MO Center=  4.9D-01,  4.5D-01, -4.8D-01, r^2= 1.9D+00
   Bfn.  Coefficient  Atom+Function         Bfn.  Coefficient  Atom+Function  
  ----- ------------  ---------------      ----- ------------  ---------------
    61      0.373802  2 O  s                116     -0.329518  3 O  s          
    63      0.240433  2 O  s                118     -0.211845  3 O  s          
    17     -0.139896  1 P  py                11      0.130956  1 P  py         
    62      0.105407  2 O  s                 64      0.095110  2 O  s          
   117     -0.092915  3 O  s                119     -0.083869  3 O  s          

 Vector   13  Occ=2.000000D+00  E=-6.876026D-01
              MO Center=  2.3D-01, -3.2D-02,  7.9D-01, r^2= 1.8D+00
   Bfn.  Coefficient  Atom+Function         Bfn.  Coefficient  Atom+Function  
  ----- ------------  ---------------      ----- ------------  ---------------
   171      0.417596  4 O  s                173      0.268644  4 O  s          
   116     -0.229251  3 O  s                 18     -0.153519  1 P  pz         
    61     -0.148806  2 O  s                118     -0.147559  3 O  s          
    12      0.143838  1 P  pz               172      0.117769  4 O  s          
   174      0.106106  4 O  s                 63     -0.095786  2 O  s          

 Vector   14  Occ=2.000000D+00  E=-3.039138D-01
              MO Center= -5.9D-03, -4.1D-03, -3.8D-02, r^2= 3.1D+00
   Bfn.  Coefficient  Atom+Function         Bfn.  Coefficient  Atom+Function  
  ----- ------------  ---------------      ----- ------------  ---------------
     3      0.411381  1 P  s                  5      0.214455  1 P  s          
    61     -0.156254  2 O  s                116     -0.156303  3 O  s          
   171     -0.156091  4 O  s                226     -0.156853  5 O  s          
   228     -0.154081  5 O  s                 63     -0.152870  2 O  s          
   118     -0.152906  3 O  s                173     -0.152546  4 O  s          

 Vector   15  Occ=2.000000D+00  E=-2.100873D-01
              MO Center= -3.8D-01, -9.2D-02, -3.1D-01, r^2= 2.8D+00
   Bfn.  Coefficient  Atom+Function         Bfn.  Coefficient  Atom+Function  
  ----- ------------  ---------------      ----- ------------  ---------------
    10      0.194894  1 P  px               228      0.195353  5 O  s          
   230     -0.169779  5 O  px               233     -0.168315  5 O  px         
    11      0.152499  1 P  py               226      0.131342  5 O  s          
    63     -0.122881  2 O  s                124      0.119218  3 O  py         
    66     -0.118419  2 O  py               121      0.118719  3 O  py         

 Vector   16  Occ=2.000000D+00  E=-2.094142D-01
              MO Center=  2.1D-01, -1.6D-01,  3.5D-01, r^2= 2.8D+00
   Bfn.  Coefficient  Atom+Function         Bfn.  Coefficient  Atom+Function  
  ----- ------------  ---------------      ----- ------------  ---------------
    12      0.220816  1 P  pz               177     -0.200543  4 O  pz         
   180     -0.198935  4 O  pz               173     -0.186938  4 O  s          
   120      0.157307  3 O  px               123      0.156615  3 O  px         
   118      0.145383  3 O  s                171     -0.126378  4 O  s          
    15      0.121750  1 P  pz                70      0.097939  2 O  pz         

 Vector   17  Occ=2.000000D+00  E=-2.091703D-01
              MO Center=  1.6D-01,  2.5D-01, -1.4D-01, r^2= 3.0D+00
   Bfn.  Coefficient  Atom+Function         Bfn.  Coefficient  Atom+Function  
  ----- ------------  ---------------      ----- ------------  ---------------
    66     -0.179963  2 O  py                69     -0.178582  2 O  py         
    11      0.173757  1 P  py                63     -0.170449  2 O  s          
    10     -0.136923  1 P  px               118      0.132442  3 O  s          
   122     -0.115675  3 O  pz               125     -0.115889  3 O  pz         
   234      0.115778  5 O  py                61     -0.114693  2 O  s          

 Vector   18  Occ=2.000000D+00  E=-1.299436D-01
              MO Center= -3.4D-02, -3.6D-02, -3.6D-02, r^2= 3.1D+00
   Bfn.  Coefficient  Atom+Function         Bfn.  Coefficient  Atom+Function  
  ----- ------------  ---------------      ----- ------------  ---------------
   235      0.173374  5 O  pz               232      0.172166  5 O  pz         
   124      0.161452  3 O  py               121      0.160462  3 O  py         
   179     -0.128695  4 O  py               178     -0.128045  4 O  px         
   175     -0.127114  4 O  px               176     -0.127746  4 O  py         
    68      0.124694  2 O  px                65      0.123784  2 O  px         

 Vector   19  Occ=2.000000D+00  E=-1.278994D-01
              MO Center= -5.2D-02, -1.6D-03, -8.4D-02, r^2= 3.1D+00
   Bfn.  Coefficient  Atom+Function         Bfn.  Coefficient  Atom+Function  
  ----- ------------  ---------------      ----- ------------  ---------------
   234      0.168711  5 O  py               231      0.167590  5 O  py         
   125      0.163233  3 O  pz               122      0.162356  3 O  pz         
    68     -0.133459  2 O  px                65     -0.132607  2 O  px         
   178      0.124815  4 O  px               175      0.124007  4 O  px         
    67     -0.122498  2 O  pz                70     -0.123030  2 O  pz         

 Vector   20  Occ=2.000000D+00  E=-1.186591D-01
              MO Center=  3.2D-02,  8.4D-03, -5.0D-02, r^2= 3.3D+00
   Bfn.  Coefficient  Atom+Function         Bfn.  Coefficient  Atom+Function  
  ----- ------------  ---------------      ----- ------------  ---------------
    16      0.146637  1 P  px               230      0.144565  5 O  px         
   120      0.142226  3 O  px               123      0.136790  3 O  px         
    65      0.135644  2 O  px                68      0.136108  2 O  px         
   233      0.135800  5 O  px               175      0.127117  4 O  px         
   178      0.127553  4 O  px                23      0.119038  1 P  dxy        

 Vector   21  Occ=2.000000D+00  E=-1.181013D-01
              MO Center= -1.1D-02,  4.8D-02, -2.0D-02, r^2= 3.3D+00
   Bfn.  Coefficient  Atom+Function         Bfn.  Coefficient  Atom+Function  
  ----- ------------  ---------------      ----- ------------  ---------------
    18      0.152858  1 P  pz               177      0.153452  4 O  pz         
    70      0.144633  2 O  pz                67      0.142363  2 O  pz         
   180      0.142090  4 O  pz               232      0.141581  5 O  pz         
   235      0.139594  5 O  pz               122      0.136793  3 O  pz         
   125      0.133844  3 O  pz                17      0.126896  1 P  py         

 Vector   22  Occ=2.000000D+00  E=-1.174708D-01
              MO Center=  5.0D-02, -3.3D-02,  1.0D-02, r^2= 3.3D+00
   Bfn.  Coefficient  Atom+Function         Bfn.  Coefficient  Atom+Function  
  ----- ------------  ---------------      ----- ------------  ---------------
    16      0.134651  1 P  px               120      0.134118  3 O  px         
   175      0.130380  4 O  px               178      0.130752  4 O  px         
   123      0.126618  3 O  px               230      0.125413  5 O  px         
   233      0.119821  5 O  px                65      0.115004  2 O  px         
    68      0.115321  2 O  px                66     -0.110100  2 O  py         

 Vector   23  Occ=2.000000D+00  E=-7.350287D-02
              MO Center= -8.8D-02, -1.3D-01,  2.8D-02, r^2= 3.2D+00
   Bfn.  Coefficient  Atom+Function         Bfn.  Coefficient  Atom+Function  
  ----- ------------  ---------------      ----- ------------  ---------------
   235      0.191237  5 O  pz               232      0.188507  5 O  pz         
   124     -0.156457  3 O  py               179      0.156654  4 O  py         
   121     -0.154313  3 O  py               176      0.154491  4 O  py         
    70     -0.149502  2 O  pz                67     -0.147537  2 O  pz         
   178      0.147981  4 O  px               175      0.145923  4 O  px         

 Vector   24  Occ=2.000000D+00  E=-7.249746D-02
              MO Center= -1.7D-01,  1.6D-01, -3.2D-01, r^2= 3.1D+00
   Bfn.  Coefficient  Atom+Function         Bfn.  Coefficient  Atom+Function  
  ----- ------------  ---------------      ----- ------------  ---------------
    68      0.240847  2 O  px                65      0.237654  2 O  px         
   234      0.189233  5 O  py               231      0.186891  5 O  py         
    71      0.184272  2 O  px               124     -0.152165  3 O  py         
   121     -0.149984  3 O  py               237      0.144758  5 O  py         
   178     -0.126943  4 O  px               175     -0.125219  4 O  px         

 Vector   25  Occ=0.000000D+00  E=-7.124794D-02
              MO Center=  2.8D-01, -9.0D-03,  2.1D-01, r^2= 3.1D+00
   Bfn.  Coefficient  Atom+Function         Bfn.  Coefficient  Atom+Function  
  ----- ------------  ---------------      ----- ------------  ---------------
   125      0.217805  3 O  pz               122      0.215110  3 O  pz         
   179      0.189142  4 O  py               176      0.186725  4 O  py         
    70     -0.175841  2 O  pz                67     -0.173477  2 O  pz         
   128      0.166635  3 O  pz               178     -0.158595  4 O  px         
   175     -0.156613  4 O  px               182      0.144796  4 O  py         

 Vector   26  Occ=0.000000D+00  E= 1.301678D-01
              MO Center= -1.5D-02, -9.9D-03, -4.7D-02, r^2= 1.4D+01
   Bfn.  Coefficient  Atom+Function         Bfn.  Coefficient  Atom+Function  
  ----- ------------  ---------------      ----- ------------  ---------------
     5      6.077333  1 P  s                  6      5.364026  1 P  s          
   229     -1.812841  5 O  s                 64     -1.789781  2 O  s          
   119     -1.788412  3 O  s                174     -1.782688  4 O  s          
    63     -0.955625  2 O  s                118     -0.955168  3 O  s          
   173     -0.954469  4 O  s                228     -0.958736  5 O  s          

 Vector   27  Occ=0.000000D+00  E= 1.482372D-01
              MO Center= -1.3D-01,  1.1D-02, -1.5D-01, r^2= 2.0D+01
   Bfn.  Coefficient  Atom+Function         Bfn.  Coefficient  Atom+Function  
  ----- ------------  ---------------      ----- ------------  ---------------
   229      3.129847  5 O  s                 16      2.682132  1 P  px         
    64     -2.465436  2 O  s                 17      2.284927  1 P  py         
    19      1.819354  1 P  px                20      1.554822  1 P  py         
   119     -1.395176  3 O  s                174      0.705148  4 O  s          
    18     -0.675050  1 P  pz                50     -0.606932  1 P  fxxx       

 Vector   28  Occ=0.000000D+00  E= 1.483310D-01
              MO Center=  7.3D-02, -6.7D-02,  1.2D-01, r^2= 2.0D+01
   Bfn.  Coefficient  Atom+Function         Bfn.  Coefficient  Atom+Function  
  ----- ------------  ---------------      ----- ------------  ---------------
   174     -3.152518  4 O  s                 18      3.053668  1 P  pz         
   119      2.486279  3 O  s                 21      2.085843  1 P  pz         
    17      1.724030  1 P  py               229      1.304555  5 O  s          
    20      1.174951  1 P  py                16     -0.688444  1 P  px         
    52     -0.690849  1 P  fxxz              57     -0.688503  1 P  fyyz       

 Vector   29  Occ=0.000000D+00  E= 1.483983D-01
              MO Center=  6.2D-02,  5.9D-02, -6.7D-02, r^2= 2.0D+01
   Bfn.  Coefficient  Atom+Function         Bfn.  Coefficient  Atom+Function  
  ----- ------------  ---------------      ----- ------------  ---------------
    64      2.684940  2 O  s                119     -2.370025  3 O  s          
    16      2.290020  1 P  px                17     -2.150541  1 P  py         
   174     -1.817504  4 O  s                 18      1.730409  1 P  pz         
    19      1.553926  1 P  px               229      1.482278  5 O  s          
    20     -1.467747  1 P  py                21      1.179256  1 P  pz         

 Vector   30  Occ=0.000000D+00  E= 2.140538D-01
              MO Center= -6.9D-01, -2.2D-01, -3.5D-01, r^2= 1.6D+01
   Bfn.  Coefficient  Atom+Function         Bfn.  Coefficient  Atom+Function  
  ----- ------------  ---------------      ----- ------------  ---------------
    16      9.522467  1 P  px                17      8.098048  1 P  py         
   229      7.465403  5 O  s                 64     -3.769181  2 O  s          
    18      3.558179  1 P  pz               239      3.026043  5 O  px         
    55     -2.689175  1 P  fxzz              50     -2.635598  1 P  fxxx       
    53     -2.637854  1 P  fxyy              58     -2.290030  1 P  fyzz       

 Vector   31  Occ=0.000000D+00  E= 2.141503D-01
              MO Center=  6.7D-01, -1.1D-01, -3.9D-01, r^2= 1.6D+01
   Bfn.  Coefficient  Atom+Function         Bfn.  Coefficient  Atom+Function  
  ----- ------------  ---------------      ----- ------------  ---------------
    17     -9.061977  1 P  py                16      8.837613  1 P  px         
   119     -7.279872  3 O  s                 64      4.426267  2 O  s          
    18     -3.024115  1 P  pz               129      2.944784  3 O  px         
    58      2.561641  1 P  fyzz              56      2.515695  1 P  fyyy       
    51      2.484441  1 P  fxxy              55     -2.495786  1 P  fxzz       

 Vector   32  Occ=0.000000D+00  E= 2.141620D-01
              MO Center=  1.4D-02,  3.3D-01,  6.3D-01, r^2= 1.6D+01
   Bfn.  Coefficient  Atom+Function         Bfn.  Coefficient  Atom+Function  
  ----- ------------  ---------------      ----- ------------  ---------------
    18     12.151262  1 P  pz               174     -7.099688  4 O  s          
    64      4.874115  2 O  s                 17     -4.639601  1 P  py         
   186      3.511821  4 O  pz                52     -3.469063  1 P  fxxz       
    57     -3.397408  1 P  fyyz              59     -3.339237  1 P  fzzz       
    75     -2.286737  2 O  py               119      1.428808  3 O  s          

 Vector   33  Occ=0.000000D+00  E= 2.250946D-01
              MO Center=  2.0D-03,  2.2D-03, -3.6D-02, r^2= 1.5D+01
   Bfn.  Coefficient  Atom+Function         Bfn.  Coefficient  Atom+Function  
  ----- ------------  ---------------      ----- ------------  ---------------
    36      2.256845  1 P  dxz               38      1.952075  1 P  dyz        
    35     -1.611994  1 P  dxy              241      1.266944  5 O  pz         
   130      1.193432  3 O  py                74      1.028144  2 O  px         
   184     -1.029741  4 O  px               185     -0.882468  4 O  py         
    76     -0.833744  2 O  pz                34     -0.693462  1 P  dxx        

 Vector   34  Occ=0.000000D+00  E= 2.252737D-01
              MO Center=  4.5D-03, -2.4D-03, -2.8D-02, r^2= 1.5D+01
   Bfn.  Coefficient  Atom+Function         Bfn.  Coefficient  Atom+Function  
  ----- ------------  ---------------      ----- ------------  ---------------
    38      2.267415  1 P  dyz               36     -1.926128  1 P  dxz        
    35      1.403990  1 P  dxy              131      1.209835  3 O  pz         
   240      1.197897  5 O  py               185     -1.029302  4 O  py         
    76     -0.983158  2 O  pz                74     -0.888165  2 O  px         
   184      0.882795  4 O  px                37      0.821626  1 P  dyy        

 Vector   35  Occ=0.000000D+00  E= 2.428143D-01
              MO Center=  6.4D-03,  3.0D-03, -2.8D-02, r^2= 1.7D+01
   Bfn.  Coefficient  Atom+Function         Bfn.  Coefficient  Atom+Function  
  ----- ------------  ---------------      ----- ------------  ---------------
     5     24.477009  1 P  s                  6    -12.301361  1 P  s          
    34      8.599996  1 P  dxx               37      8.596040  1 P  dyy        
    39      8.602660  1 P  dzz               64     -7.287044  2 O  s          
   119     -7.290262  3 O  s                174     -7.297558  4 O  s          
   229     -7.260921  5 O  s                186      3.254786  4 O  pz         

 Vector   36  Occ=0.000000D+00  E= 2.468075D-01
              MO Center= -3.8D-03, -3.0D-03, -3.7D-02, r^2= 8.3D+00
   Bfn.  Coefficient  Atom+Function         Bfn.  Coefficient  Atom+Function  
  ----- ------------  ---------------      ----- ------------  ---------------
     5     14.587937  1 P  s                  6      3.889003  1 P  s          
   229     -3.299695  5 O  s                 64     -3.279727  2 O  s          
   119     -3.279217  3 O  s                174     -3.272750  4 O  s          
   183      1.865360  4 O  pz                63     -1.839537  2 O  s          
   118     -1.839716  3 O  s                173     -1.839229  4 O  s          

 Vector   37  Occ=0.000000D+00  E= 2.822898D-01
              MO Center=  1.1D-01, -7.1D-02,  5.1D-02, r^2= 5.8D+00
   Bfn.  Coefficient  Atom+Function         Bfn.  Coefficient  Atom+Function  
  ----- ------------  ---------------      ----- ------------  ---------------
    64      3.998483  2 O  s                229     -3.922498  5 O  s          
    16     -3.463562  1 P  px                17     -3.163492  1 P  py         
   174     -2.318039  4 O  s                119      2.236366  3 O  s          
    18      2.111997  1 P  pz                35      1.568222  1 P  dxy        
    36      1.131298  1 P  dxz               37     -1.059460  1 P  dyy        

 Vector   38  Occ=0.000000D+00  E= 2.824599D-01
              MO Center= -5.0D-02,  8.1D-02, -1.8D-01, r^2= 5.8D+00
   Bfn.  Coefficient  Atom+Function         Bfn.  Coefficient  Atom+Function  
  ----- ------------  ---------------      ----- ------------  ---------------
   174     -4.372103  4 O  s                 18      4.037581  1 P  pz         
   119      3.457897  3 O  s                 17      3.164880  1 P  py         
   229      2.721542  5 O  s                 64     -1.825773  2 O  s          
    34     -1.379200  1 P  dxx               39      1.283771  1 P  dzz        
    57     -1.057360  1 P  fyyz              38     -1.043345  1 P  dyz        

 Vector   39  Occ=0.000000D+00  E= 2.828757D-01
              MO Center= -5.8D-02, -1.0D-02,  3.0D-02, r^2= 5.9D+00
   Bfn.  Coefficient  Atom+Function         Bfn.  Coefficient  Atom+Function  
  ----- ------------  ---------------      ----- ------------  ---------------
    16      3.819545  1 P  px               119     -3.802286  3 O  s          
    64      3.479581  2 O  s                229      2.956752  5 O  s          
   174     -2.630168  4 O  s                 17     -2.556017  1 P  py         
    18      2.391550  1 P  pz                35     -1.727418  1 P  dxy        
    36     -1.231952  1 P  dxz               37     -0.988471  1 P  dyy        

 Vector   40  Occ=0.000000D+00  E= 3.000370D-01
              MO Center= -1.7D-01, -2.4D-01,  7.6D-02, r^2= 1.4D+01
   Bfn.  Coefficient  Atom+Function         Bfn.  Coefficient  Atom+Function  
  ----- ------------  ---------------      ----- ------------  ---------------
   241      1.562731  5 O  pz               184      1.283008  4 O  px         
   185      1.040317  4 O  py               130     -1.003345  3 O  py         
    76     -0.965040  2 O  pz               129     -0.831455  3 O  px         
   239     -0.819025  5 O  px               131     -0.552809  3 O  pz         
    75     -0.339049  2 O  py                74      0.324040  2 O  px         

 Vector   41  Occ=0.000000D+00  E= 3.000709D-01
              MO Center= -2.2D-01,  1.5D-01, -4.1D-01, r^2= 1.4D+01
   Bfn.  Coefficient  Atom+Function         Bfn.  Coefficient  Atom+Function  
  ----- ------------  ---------------      ----- ------------  ---------------
    74      1.763686  2 O  px               240      1.541479  5 O  py         
   130     -1.168270  3 O  py               241     -0.748426  5 O  pz         
   184     -0.619681  4 O  px               239     -0.587389  5 O  px         
   129     -0.583405  3 O  px               185     -0.530869  4 O  py         
    76      0.495712  2 O  pz                53     -0.456453  1 P  fxyy       

 Vector   42  Occ=0.000000D+00  E= 3.002092D-01
              MO Center=  3.8D-01,  8.3D-02,  2.3D-01, r^2= 1.4D+01
   Bfn.  Coefficient  Atom+Function         Bfn.  Coefficient  Atom+Function  
  ----- ------------  ---------------      ----- ------------  ---------------
   131      1.610091  3 O  pz               185      1.421181  4 O  py         
    76     -1.361802  2 O  pz               184     -1.159106  4 O  px         
   130     -0.526834  3 O  py                75     -0.477425  2 O  py         
   240     -0.456697  5 O  py                74      0.426323  2 O  px         
   129      0.397403  3 O  px               239      0.384793  5 O  px         

 Vector   43  Occ=0.000000D+00  E= 3.108665D-01
              MO Center=  4.5D-02, -1.7D-02,  1.4D-02, r^2= 1.6D+01
   Bfn.  Coefficient  Atom+Function         Bfn.  Coefficient  Atom+Function  
  ----- ------------  ---------------      ----- ------------  ---------------
    19      2.960045  1 P  px                20      2.048602  1 P  py         
    21     -2.055128  1 P  pz               184     -1.822894  4 O  px         
    74     -1.812347  2 O  px                35      1.770938  1 P  dxy        
   129     -1.771917  3 O  px               239     -1.762977  5 O  px         
    16      1.272764  1 P  px                36      1.270513  1 P  dxz        

 Vector   44  Occ=0.000000D+00  E= 3.110067D-01
              MO Center=  7.4D-03,  4.0D-02, -1.1D-01, r^2= 1.6D+01
   Bfn.  Coefficient  Atom+Function         Bfn.  Coefficient  Atom+Function  
  ----- ------------  ---------------      ----- ------------  ---------------
    20      2.928947  1 P  py                21      2.936263  1 P  pz         
    76     -1.809560  2 O  pz               131     -1.794244  3 O  pz         
   185     -1.798164  4 O  py               130     -1.774620  3 O  py         
   241     -1.772992  5 O  pz                75     -1.759397  2 O  py         
   240     -1.767931  5 O  py               186     -1.741218  4 O  pz         

 Vector   45  Occ=0.000000D+00  E= 3.111443D-01
              MO Center= -4.5D-02, -2.2D-02,  8.8D-04, r^2= 1.6D+01
   Bfn.  Coefficient  Atom+Function         Bfn.  Coefficient  Atom+Function  
  ----- ------------  ---------------      ----- ------------  ---------------
    19      2.901290  1 P  px                20     -2.102936  1 P  py         
    21      2.087526  1 P  pz                74     -1.782223  2 O  px         
   184     -1.779566  4 O  px               129     -1.731879  3 O  px         
   239     -1.740012  5 O  px                35      1.712854  1 P  dxy        
   131     -1.296463  3 O  pz               185      1.295176  4 O  py         

 Vector   46  Occ=0.000000D+00  E= 3.479017D-01
              MO Center=  5.1D-03,  1.2D-03, -3.1D-02, r^2= 1.0D+01
   Bfn.  Coefficient  Atom+Function         Bfn.  Coefficient  Atom+Function  
  ----- ------------  ---------------      ----- ------------  ---------------
     6     14.596247  1 P  s                 34     -8.265796  1 P  dxx        
    37     -8.272507  1 P  dyy               39     -8.276903  1 P  dzz        
    64      3.747706  2 O  s                119      3.758616  3 O  s          
   174      3.758115  4 O  s                229      3.697363  5 O  s          
     5     -3.202360  1 P  s                 63     -2.107873  2 O  s          

 Vector   47  Occ=0.000000D+00  E= 3.698536D-01
              MO Center=  4.2D-02, -2.0D-02,  9.0D-03, r^2= 1.0D+01
   Bfn.  Coefficient  Atom+Function         Bfn.  Coefficient  Atom+Function  
  ----- ------------  ---------------      ----- ------------  ---------------
   174     -2.782666  4 O  s                119      2.613254  3 O  s          
    35     -2.131724  1 P  dxy              186      1.970150  4 O  pz         
    39     -1.684226  1 P  dzz               64      1.662739  2 O  s          
    36     -1.541236  1 P  dxz              129     -1.527703  3 O  px         
   229     -1.498401  5 O  s                 54      1.472381  1 P  fxyz       

 Vector   48  Occ=0.000000D+00  E= 3.699204D-01
              MO Center= -3.7D-02,  3.0D-02, -7.4D-02, r^2= 1.0D+01
   Bfn.  Coefficient  Atom+Function         Bfn.  Coefficient  Atom+Function  
  ----- ------------  ---------------      ----- ------------  ---------------
    64      2.794441  2 O  s                229     -2.631066  5 O  s          
    38     -2.108635  1 P  dyz               34     -1.930586  1 P  dxx        
    75     -1.906416  2 O  py               119     -1.666489  3 O  s          
    17     -1.655255  1 P  py               174      1.483531  4 O  s          
   239     -1.428115  5 O  px                63     -1.309388  2 O  s          

 Vector   49  Occ=0.000000D+00  E= 3.701280D-01
              MO Center= -6.6D-03, -1.4D-02, -3.8D-02, r^2= 1.0D+01
   Bfn.  Coefficient  Atom+Function         Bfn.  Coefficient  Atom+Function  
  ----- ------------  ---------------      ----- ------------  ---------------
   229      2.430772  5 O  s                 35      2.397280  1 P  dxy        
   119     -2.292116  3 O  s                174     -2.187154  4 O  s          
    64      2.065894  2 O  s                 36      1.722737  1 P  dxz        
    54     -1.664856  1 P  fxyz             186      1.530504  4 O  pz         
   239      1.435500  5 O  px                16      1.412931  1 P  px         

 Vector   50  Occ=0.000000D+00  E= 4.000746D-01
              MO Center= -2.9D-01, -9.7D-02, -2.2D-01, r^2= 1.1D+01
   Bfn.  Coefficient  Atom+Function         Bfn.  Coefficient  Atom+Function  
  ----- ------------  ---------------      ----- ------------  ---------------
   229     15.353729  5 O  s                 16      9.052415  1 P  px         
    64     -8.359239  2 O  s                 17      6.767914  1 P  py         
   119     -5.268707  3 O  s                 35     -5.107762  1 P  dxy        
   239      3.784766  5 O  px                36     -3.648247  1 P  dxz        
    38     -2.687487  1 P  dyz               75      2.576863  2 O  py         

 Vector   51  Occ=0.000000D+00  E= 4.002301D-01
              MO Center= -1.2D-02,  1.1D-01,  3.2D-01, r^2= 1.1D+01
   Bfn.  Coefficient  Atom+Function         Bfn.  Coefficient  Atom+Function  
  ----- ------------  ---------------      ----- ------------  ---------------
   174     15.312795  4 O  s                 18    -10.937171  1 P  pz         
    64     -8.862542  2 O  s                186     -4.598872  4 O  pz         
    39     -4.384621  1 P  dzz              229     -4.065480  5 O  s          
    37      3.021904  1 P  dyy               17      2.927797  1 P  py         
    76     -2.497780  2 O  pz               119     -2.437919  3 O  s          

 Vector   52  Occ=0.000000D+00  E= 4.002668D-01
              MO Center=  3.1D-01, -9.3D-03, -1.9D-01, r^2= 1.1D+01
   Bfn.  Coefficient  Atom+Function         Bfn.  Coefficient  Atom+Function  
  ----- ------------  ---------------      ----- ------------  ---------------
   119     14.757840  3 O  s                 64    -10.153962  2 O  s          
    17      8.631822  1 P  py                16     -6.834998  1 P  px         
    35      3.840291  1 P  dxy              174     -3.777561  4 O  s          
    38     -3.469814  1 P  dyz              129     -3.288916  3 O  px         
    75      3.209284  2 O  py                34     -2.983438  1 P  dxx        

 Vector   53  Occ=0.000000D+00  E= 4.470311D-01
              MO Center= -1.1D-03, -1.6D-03, -3.5D-02, r^2= 1.4D+01
   Bfn.  Coefficient  Atom+Function         Bfn.  Coefficient  Atom+Function  
  ----- ------------  ---------------      ----- ------------  ---------------
     5     37.935093  1 P  s                 64    -17.885887  2 O  s          
   119    -17.893934  3 O  s                174    -17.883863  4 O  s          
   229    -17.891490  5 O  s                 34     14.483833  1 P  dxx        
    37     14.507252  1 P  dyy               39     14.495684  1 P  dzz        
     6     -7.193996  1 P  s                186      4.466438  4 O  pz         

 Vector   54  Occ=0.000000D+00  E= 4.561626D-01
              MO Center= -2.2D-03, -4.4D-03, -3.4D-02, r^2= 8.8D+00
   Bfn.  Coefficient  Atom+Function         Bfn.  Coefficient  Atom+Function  
  ----- ------------  ---------------      ----- ------------  ---------------
    38      4.843435  1 P  dyz               36      3.888628  1 P  dxz        
    35     -2.777831  1 P  dxy               34     -1.736380  1 P  dxx        
    37      1.614812  1 P  dyy              130      1.231068  3 O  py         
   241      1.235698  5 O  pz               127      1.177504  3 O  py         
   238      1.176257  5 O  pz                26      1.077908  1 P  dyz        

 Vector   55  Occ=0.000000D+00  E= 4.569603D-01
              MO Center= -5.0D-03,  3.6D-04, -3.9D-02, r^2= 8.8D+00
   Bfn.  Coefficient  Atom+Function         Bfn.  Coefficient  Atom+Function  
  ----- ------------  ---------------      ----- ------------  ---------------
    36      4.793201  1 P  dxz               38     -3.923081  1 P  dyz        
    35     -3.452238  1 P  dxy               34      1.490216  1 P  dxx        
   131     -1.294516  3 O  pz                37     -1.248356  1 P  dyy        
   128     -1.231056  3 O  pz               240     -1.230350  5 O  py         
   237     -1.155736  5 O  py                74      1.085661  2 O  px         

 Vector   56  Occ=0.000000D+00  E= 4.921237D-01
              MO Center= -2.8D-01,  5.6D-02, -2.6D-01, r^2= 1.1D+01
   Bfn.  Coefficient  Atom+Function         Bfn.  Coefficient  Atom+Function  
  ----- ------------  ---------------      ----- ------------  ---------------
    16     23.000779  1 P  px                17     22.550923  1 P  py         
   229     12.978974  5 O  s                 64    -10.926927  2 O  s          
    55     -7.012760  1 P  fxzz              58     -6.881023  1 P  fyzz       
    50     -6.827665  1 P  fxxx              53     -6.832682  1 P  fxyy       
    51     -6.750326  1 P  fxxy              56     -6.675692  1 P  fyyy       

 Vector   57  Occ=0.000000D+00  E= 4.922861D-01
              MO Center=  2.3D-01, -1.4D-01,  2.1D-01, r^2= 1.1D+01
   Bfn.  Coefficient  Atom+Function         Bfn.  Coefficient  Atom+Function  
  ----- ------------  ---------------      ----- ------------  ---------------
    18     26.635235  1 P  pz                17     16.258862  1 P  py         
   174    -12.525700  4 O  s                119     11.574603  3 O  s          
    16     -9.666231  1 P  px                57     -8.311029  1 P  fyyz       
    52     -7.928756  1 P  fxxz              59     -7.838172  1 P  fzzz       
    58     -4.970464  1 P  fyzz              56     -4.926333  1 P  fyyy       

 Vector   58  Occ=0.000000D+00  E= 4.925886D-01
              MO Center=  6.5D-02,  9.1D-02, -4.1D-02, r^2= 1.1D+01
   Bfn.  Coefficient  Atom+Function         Bfn.  Coefficient  Atom+Function  
  ----- ------------  ---------------      ----- ------------  ---------------
    16     21.100723  1 P  px                18     18.136084  1 P  pz         
    17    -17.159363  1 P  py                64     10.436730  2 O  s          
   119     -9.035752  3 O  s                174     -8.669035  4 O  s          
   229      7.181968  5 O  s                 55     -6.431229  1 P  fxzz       
    50     -6.264401  1 P  fxxx              53     -6.268819  1 P  fxyy       

 Vector   59  Occ=0.000000D+00  E= 5.871134D-01
              MO Center= -4.2D-04, -7.8D-04, -3.4D-02, r^2= 5.3D+00
   Bfn.  Coefficient  Atom+Function         Bfn.  Coefficient  Atom+Function  
  ----- ------------  ---------------      ----- ------------  ---------------
    38      2.813355  1 P  dyz               36      2.662007  1 P  dxz        
    35     -1.902617  1 P  dxy               34     -0.993276  1 P  dxx        
    37      0.952028  1 P  dyy               26      0.928583  1 P  dyz        
    24      0.881082  1 P  dxz              241      0.861570  5 O  pz         
   130      0.837700  3 O  py               238      0.840438  5 O  pz         

 Vector   60  Occ=0.000000D+00  E= 5.879442D-01
              MO Center= -1.5D-04, -1.1D-03, -3.4D-02, r^2= 5.3D+00
   Bfn.  Coefficient  Atom+Function         Bfn.  Coefficient  Atom+Function  
  ----- ------------  ---------------      ----- ------------  ---------------
    36      2.759218  1 P  dxz               38     -2.675731  1 P  dyz        
    35     -1.987489  1 P  dxy               37     -0.991108  1 P  dyy        
    24      0.918645  1 P  dxz               26     -0.888424  1 P  dyz        
    34      0.874337  1 P  dxx               90     -0.863033  2 O  dxy        
   128     -0.860747  3 O  pz               131     -0.860051  3 O  pz         

 Vector   61  Occ=0.000000D+00  E= 6.262306D-01
              MO Center=  6.4D-04, -4.4D-04, -3.4D-02, r^2= 8.9D+00
   Bfn.  Coefficient  Atom+Function         Bfn.  Coefficient  Atom+Function  
  ----- ------------  ---------------      ----- ------------  ---------------
     5     26.730647  1 P  s                 34    -14.732342  1 P  dxx        
    37    -14.719807  1 P  dyy               39    -14.717042  1 P  dzz        
     6     13.188663  1 P  s                 63    -12.055088  2 O  s          
   118    -12.057685  3 O  s                173    -12.056311  4 O  s          
   228    -12.045572  5 O  s                 64     11.117266  2 O  s          

 Vector   62  Occ=0.000000D+00  E= 6.928231D-01
              MO Center= -4.9D-02, -9.3D-03, -1.2D-01, r^2= 5.6D+00
   Bfn.  Coefficient  Atom+Function         Bfn.  Coefficient  Atom+Function  
  ----- ------------  ---------------      ----- ------------  ---------------
    54      4.091709  1 P  fxyz              35     -2.902593  1 P  dxy        
    39     -2.586349  1 P  dzz              173      2.386883  4 O  s          
    51     -2.153698  1 P  fxxy              36     -2.098409  1 P  dxz        
    37      2.038579  1 P  dyy              118     -1.883100  3 O  s          
    52      1.807565  1 P  fxxz              63     -1.674745  2 O  s          

 Vector   63  Occ=0.000000D+00  E= 6.930380D-01
              MO Center=  8.3D-03, -6.2D-02,  3.3D-02, r^2= 5.6D+00
   Bfn.  Coefficient  Atom+Function         Bfn.  Coefficient  Atom+Function  
  ----- ------------  ---------------      ----- ------------  ---------------
    57      3.527363  1 P  fyyz              38      3.195621  1 P  dyz        
    34      2.916653  1 P  dxx               52     -2.751510  1 P  fxxz       
    51     -2.529569  1 P  fxxy              63      2.351660  2 O  s          
   228     -1.858426  5 O  s                118     -1.738945  3 O  s          
    26      1.711691  1 P  dyz               37     -1.628805  1 P  dyy        

 Vector   64  Occ=0.000000D+00  E= 6.931606D-01
              MO Center=  3.8D-02,  6.7D-02, -2.0D-02, r^2= 5.6D+00
   Bfn.  Coefficient  Atom+Function         Bfn.  Coefficient  Atom+Function  
  ----- ------------  ---------------      ----- ------------  ---------------
    54      5.504766  1 P  fxyz              35     -3.902795  1 P  dxy        
    36     -2.796000  1 P  dxz              228      2.309935  5 O  s          
    23     -2.099659  1 P  dxy               39      1.906713  1 P  dzz        
   118     -1.856371  3 O  s                173     -1.694138  4 O  s          
    51      1.546163  1 P  fxxy              37     -1.517635  1 P  dyy        

 Vector   65  Occ=0.000000D+00  E= 7.524419D-01
              MO Center=  6.9D-02,  1.2D-02, -8.5D-02, r^2= 5.5D+00
   Bfn.  Coefficient  Atom+Function         Bfn.  Coefficient  Atom+Function  
  ----- ------------  ---------------      ----- ------------  ---------------
    55      2.607929  1 P  fxzz              54      1.793000  1 P  fxyz       
    53     -1.464727  1 P  fxyy              58      1.369803  1 P  fyzz       
   241     -0.651419  5 O  pz               201      0.615873  4 O  dxz        
   184     -0.609291  4 O  px               200      0.569427  4 O  dxy        
    52      0.526389  1 P  fxxz             259     -0.516521  5 O  dzz        

 Vector   66  Occ=0.000000D+00  E= 7.525301D-01
              MO Center= -4.9D-02, -1.7D-02,  3.5D-02, r^2= 5.5D+00
   Bfn.  Coefficient  Atom+Function         Bfn.  Coefficient  Atom+Function  
  ----- ------------  ---------------      ----- ------------  ---------------
    53      2.828140  1 P  fxyy              58      1.441228  1 P  fyzz       
    50     -0.945046  1 P  fxxx              90      0.741561  2 O  dxy        
   130      0.626939  3 O  py                74     -0.587241  2 O  px         
    57     -0.548026  1 P  fyyz              52      0.515205  1 P  fxxz       
   147      0.452366  3 O  dyy              145     -0.406431  3 O  dxy        

 Vector   67  Occ=0.000000D+00  E= 7.527470D-01
              MO Center= -2.8D-02, -2.4D-03, -5.9D-02, r^2= 5.5D+00
   Bfn.  Coefficient  Atom+Function         Bfn.  Coefficient  Atom+Function  
  ----- ------------  ---------------      ----- ------------  ---------------
    58      2.275672  1 P  fyzz              55     -1.564944  1 P  fxzz       
    54     -1.094849  1 P  fxyz              53     -0.887498  1 P  fxyy       
    57     -0.876580  1 P  fyyz              50      0.836978  1 P  fxxx       
    52      0.779629  1 P  fxxz              51     -0.580269  1 P  fxxy       
    56     -0.568546  1 P  fyyy             131     -0.554380  3 O  pz         

 Vector   68  Occ=0.000000D+00  E= 7.755638D-01
              MO Center= -2.2D-01, -3.7D-01,  5.4D-02, r^2= 7.8D+00
   Bfn.  Coefficient  Atom+Function         Bfn.  Coefficient  Atom+Function  
  ----- ------------  ---------------      ----- ------------  ---------------
   241      0.846759  5 O  pz               258      0.807849  5 O  dyz        
   201     -0.776287  4 O  dxz              148     -0.742658  3 O  dyz        
   238     -0.701921  5 O  pz               203     -0.693422  4 O  dyz        
   184      0.673617  4 O  px               130     -0.637719  3 O  py         
    93      0.632114  2 O  dyz              256      0.624364  5 O  dxz        

 Vector   69  Occ=0.000000D+00  E= 7.757676D-01
              MO Center= -3.6D-01,  2.6D-01, -5.7D-01, r^2= 7.5D+00
   Bfn.  Coefficient  Atom+Function         Bfn.  Coefficient  Atom+Function  
  ----- ------------  ---------------      ----- ------------  ---------------
    74      1.005790  2 O  px                90     -0.936019  2 O  dxy        
   256     -0.866821  5 O  dxz               53     -0.859472  1 P  fxyy       
    91      0.852109  2 O  dxz              240      0.822730  5 O  py         
    71     -0.815601  2 O  px               255      0.703336  5 O  dxy        
   237     -0.685481  5 O  py               130     -0.648142  3 O  py         

 Vector   70  Occ=0.000000D+00  E= 7.762187D-01
              MO Center=  5.6D-01,  9.7D-02,  4.0D-01, r^2= 7.5D+00
   Bfn.  Coefficient  Atom+Function         Bfn.  Coefficient  Atom+Function  
  ----- ------------  ---------------      ----- ------------  ---------------
   203     -0.951703  4 O  dyz              131      0.908904  3 O  pz         
   146     -0.898354  3 O  dxz               93      0.878068  2 O  dyz        
   185      0.814870  4 O  py                76     -0.785400  2 O  pz         
   128     -0.751308  3 O  pz               201      0.750648  4 O  dxz        
   182     -0.670480  4 O  py                58     -0.658033  1 P  fyzz       

 Vector   71  Occ=0.000000D+00  E= 7.819957D-01
              MO Center=  6.5D-03, -5.7D-04, -2.3D-02, r^2= 5.6D+00
   Bfn.  Coefficient  Atom+Function         Bfn.  Coefficient  Atom+Function  
  ----- ------------  ---------------      ----- ------------  ---------------
    24      1.223933  1 P  dxz               26      1.211122  1 P  dyz        
    23     -0.870373  1 P  dxy              238     -0.635835  5 O  pz         
   127     -0.610011  3 O  py                36     -0.598023  1 P  dxz        
    38     -0.595781  1 P  dyz               90     -0.535974  2 O  dxy        
   200      0.513070  4 O  dxy              181      0.499044  4 O  px         

 Vector   72  Occ=0.000000D+00  E= 7.824100D-01
              MO Center=  2.1D-03,  7.4D-03, -3.6D-02, r^2= 5.6D+00
   Bfn.  Coefficient  Atom+Function         Bfn.  Coefficient  Atom+Function  
  ----- ------------  ---------------      ----- ------------  ---------------
    26     -1.222495  1 P  dyz               24      1.185587  1 P  dxz        
    23     -0.864916  1 P  dxy              128      0.629380  3 O  pz         
   237      0.617738  5 O  py                38      0.597497  1 P  dyz        
    36     -0.575543  1 P  dxz               90     -0.535424  2 O  dxy        
   200      0.500926  4 O  dxy              182     -0.491041  4 O  py         

 Vector   73  Occ=0.000000D+00  E= 8.052574D-01
              MO Center= -1.7D-02, -2.1D-02, -3.0D-02, r^2= 9.8D+00
   Bfn.  Coefficient  Atom+Function         Bfn.  Coefficient  Atom+Function  
  ----- ------------  ---------------      ----- ------------  ---------------
   229      4.862484  5 O  s                 64     -3.242330  2 O  s          
    16      2.202671  1 P  px                17      1.942143  1 P  py         
   119     -1.582839  3 O  s                 19      1.499813  1 P  px         
    20      1.329628  1 P  py                35     -1.308327  1 P  dxy        
   236      1.213698  5 O  px                72      1.040464  2 O  py         

 Vector   74  Occ=0.000000D+00  E= 8.054417D-01
              MO Center= -1.7D-03,  2.2D-03, -6.1D-02, r^2= 9.8D+00
   Bfn.  Coefficient  Atom+Function         Bfn.  Coefficient  Atom+Function  
  ----- ------------  ---------------      ----- ------------  ---------------
   174      4.712967  4 O  s                119     -3.373386  3 O  s          
    18     -2.711774  1 P  pz                21     -1.853886  1 P  pz         
   183     -1.534900  4 O  pz               229     -1.314922  5 O  s          
    39     -1.130632  1 P  dzz              204     -1.076285  4 O  dzz        
    57     -1.010782  1 P  fyyz              17     -0.884283  1 P  py         

 Vector   75  Occ=0.000000D+00  E= 8.055465D-01
              MO Center= -7.6D-03,  1.9D-05, -3.2D-02, r^2= 9.8D+00
   Bfn.  Coefficient  Atom+Function         Bfn.  Coefficient  Atom+Function  
  ----- ------------  ---------------      ----- ------------  ---------------
    64      4.055487  2 O  s                119     -3.613496  3 O  s          
   174     -2.101012  4 O  s                 17     -2.022969  1 P  py         
    16      1.794719  1 P  px               229      1.692549  5 O  s          
    20     -1.379557  1 P  py                19      1.222698  1 P  px         
    72     -1.176743  2 O  py                18      1.146025  1 P  pz         

 Vector   76  Occ=0.000000D+00  E= 8.138887D-01
              MO Center=  1.2D-02,  6.9D-03, -2.1D-02, r^2= 7.2D+00
   Bfn.  Coefficient  Atom+Function         Bfn.  Coefficient  Atom+Function  
  ----- ------------  ---------------      ----- ------------  ---------------
     5     29.698174  1 P  s                 63     -8.889829  2 O  s          
   118     -8.892210  3 O  s                173     -8.890691  4 O  s          
   228     -8.874587  5 O  s                 51     -7.732176  1 P  fxxy       
     6     -7.390833  1 P  s                 52     -5.552321  1 P  fxxz       
    57     -5.439347  1 P  fyyz             183      5.161884  4 O  pz         

 Vector   77  Occ=0.000000D+00  E= 8.188340D-01
              MO Center= -3.3D-01, -6.3D-02, -2.8D-01, r^2= 7.4D+00
   Bfn.  Coefficient  Atom+Function         Bfn.  Coefficient  Atom+Function  
  ----- ------------  ---------------      ----- ------------  ---------------
    16      5.277266  1 P  px               229     -5.215904  5 O  s          
    17      4.178631  1 P  py                55     -3.295994  1 P  fxzz       
    64      3.279225  2 O  s                 50     -3.262808  1 P  fxxx       
    53     -3.265913  1 P  fxyy              51     -2.705313  1 P  fxxy       
    58     -2.620320  1 P  fyzz              56     -2.551229  1 P  fyyy       

 Vector   78  Occ=0.000000D+00  E= 8.191176D-01
              MO Center=  2.1D-01, -1.4D-01,  3.1D-01, r^2= 7.3D+00
   Bfn.  Coefficient  Atom+Function         Bfn.  Coefficient  Atom+Function  
  ----- ------------  ---------------      ----- ------------  ---------------
    18      5.983811  1 P  pz               174      5.029114  4 O  s          
   119     -3.945453  3 O  s                 57     -3.843668  1 P  fyyz       
    52     -3.789746  1 P  fxxz              59     -3.693149  1 P  fzzz       
    17      2.380820  1 P  py               186     -1.923101  4 O  pz         
    16     -1.854539  1 P  px                58     -1.498651  1 P  fyzz       

 Vector   79  Occ=0.000000D+00  E= 8.191654D-01
              MO Center=  1.4D-01,  2.2D-01, -1.2D-01, r^2= 7.5D+00
   Bfn.  Coefficient  Atom+Function         Bfn.  Coefficient  Atom+Function  
  ----- ------------  ---------------      ----- ------------  ---------------
    17      4.663879  1 P  py                64      4.579894  2 O  s          
    16     -3.681163  1 P  px               119     -3.525073  3 O  s          
    18     -2.972870  1 P  pz                58     -2.943927  1 P  fyzz       
    51     -2.899277  1 P  fxxy              56     -2.911201  1 P  fyyy       
   174     -2.557669  4 O  s                 55      2.307767  1 P  fxzz       

 Vector   80  Occ=0.000000D+00  E= 8.826184D-01
              MO Center=  1.2D-03, -7.3D-04, -3.2D-02, r^2= 7.2D+00
   Bfn.  Coefficient  Atom+Function         Bfn.  Coefficient  Atom+Function  
  ----- ------------  ---------------      ----- ------------  ---------------
    36      3.039850  1 P  dxz               38      2.873843  1 P  dyz        
    35     -2.177429  1 P  dxy              238      1.156674  5 O  pz         
   127      1.106988  3 O  py                37      1.024975  1 P  dyy        
    34     -0.960596  1 P  dxx              181     -0.922740  4 O  px         
    71      0.917738  2 O  px               182     -0.860169  4 O  py         

 Vector   81  Occ=0.000000D+00  E= 8.829818D-01
              MO Center=  5.4D-04,  5.5D-04, -3.4D-02, r^2= 7.2D+00
   Bfn.  Coefficient  Atom+Function         Bfn.  Coefficient  Atom+Function  
  ----- ------------  ---------------      ----- ------------  ---------------
    38     -3.068548  1 P  dyz               36      2.839326  1 P  dxz        
    35     -2.036924  1 P  dxy              128     -1.131950  3 O  pz         
   237     -1.114477  5 O  py                34      1.103992  1 P  dxx        
    37     -1.020794  1 P  dyy              182      0.915578  4 O  py         
    71      0.865639  2 O  px                73      0.859551  2 O  pz         

 Vector   82  Occ=0.000000D+00  E= 9.110379D-01
              MO Center= -1.1D-01, -8.2D-02, -5.0D-02, r^2= 6.3D+00
   Bfn.  Coefficient  Atom+Function         Bfn.  Coefficient  Atom+Function  
  ----- ------------  ---------------      ----- ------------  ---------------
    16      8.323143  1 P  px                18      5.216567  1 P  pz         
    50     -4.582621  1 P  fxxx              53     -4.557557  1 P  fxyy       
   229      4.139060  5 O  s                 55     -3.828664  1 P  fxzz       
    17      3.074696  1 P  py                59     -3.056467  1 P  fzzz       
    52     -2.800535  1 P  fxxz              51     -2.402590  1 P  fxxy       

 Vector   83  Occ=0.000000D+00  E= 9.111795D-01
              MO Center=  2.0D-02,  1.4D-01, -8.5D-02, r^2= 6.3D+00
   Bfn.  Coefficient  Atom+Function         Bfn.  Coefficient  Atom+Function  
  ----- ------------  ---------------      ----- ------------  ---------------
    17      9.725029  1 P  py                56     -5.498166  1 P  fyyy       
    51     -4.892697  1 P  fxxy              58     -4.427926  1 P  fyzz       
    64     -4.273146  2 O  s                 18     -3.272684  1 P  pz         
    57      2.740387  1 P  fyyz              59      1.901222  1 P  fzzz       
   119      1.885830  3 O  s                174      1.404958  4 O  s          

 Vector   84  Occ=0.000000D+00  E= 9.113090D-01
              MO Center=  9.1D-02, -5.6D-02,  3.3D-02, r^2= 6.3D+00
   Bfn.  Coefficient  Atom+Function         Bfn.  Coefficient  Atom+Function  
  ----- ------------  ---------------      ----- ------------  ---------------
    18      8.355895  1 P  pz                16     -6.050031  1 P  px         
    59     -4.819151  1 P  fzzz              52     -4.073867  1 P  fxxz       
   119      3.611402  3 O  s                 57     -3.544125  1 P  fyyz       
[...]
    46     -5.499537  1 P  fyyy              48     -5.355221  1 P  fyzz       

 Vector  254  Occ=0.000000D+00  E= 7.347734D+00
              MO Center=  6.6D-01, -1.2D-01, -4.2D-01, r^2= 2.2D+00
   Bfn.  Coefficient  Atom+Function         Bfn.  Coefficient  Atom+Function  
  ----- ------------  ---------------      ----- ------------  ---------------
    10     12.371645  1 P  px                11    -11.780848  1 P  py         
   118      8.287896  3 O  s                 40     -6.430862  1 P  fxxx       
    43     -6.427396  1 P  fxyy              45     -6.222012  1 P  fxzz       
    41      6.187604  1 P  fxxy              46      6.100857  1 P  fyyy       
    48      5.913820  1 P  fyzz               7      5.523432  1 P  px         

 Vector  255  Occ=0.000000D+00  E= 7.347832D+00
              MO Center=  5.2D-02,  3.6D-01,  5.7D-01, r^2= 2.3D+00
   Bfn.  Coefficient  Atom+Function         Bfn.  Coefficient  Atom+Function  
  ----- ------------  ---------------      ----- ------------  ---------------
    12     15.627016  1 P  pz                49     -8.210875  1 P  fzzz       
    47     -8.010008  1 P  fyyz             173      7.822003  4 O  s          
    42     -7.686415  1 P  fxxz               9      6.976641  1 P  pz         
    11     -6.886064  1 P  py                63     -5.795059  2 O  s          
    15     -5.186853  1 P  pz                46      3.705474  1 P  fyyy       

 Vector  256  Occ=0.000000D+00  E= 8.160787D+00
              MO Center= -1.3D-01, -1.3D-02, -4.8D-02, r^2= 1.6D+00
   Bfn.  Coefficient  Atom+Function         Bfn.  Coefficient  Atom+Function  
  ----- ------------  ---------------      ----- ------------  ---------------
    11     35.790296  1 P  py                12     25.107286  1 P  pz         
     8     15.786554  1 P  py                48    -14.742216  1 P  fyzz       
    46    -14.389823  1 P  fyyy              41    -13.770454  1 P  fxxy       
    10     12.632024  1 P  px                 9     11.074451  1 P  pz         
    47    -11.002517  1 P  fyyz              49     -9.881867  1 P  fzzz       

 Vector  257  Occ=0.000000D+00  E= 8.161183D+00
              MO Center=  4.3D-02,  4.7D-02,  8.5D-02, r^2= 1.6D+00
   Bfn.  Coefficient  Atom+Function         Bfn.  Coefficient  Atom+Function  
  ----- ------------  ---------------      ----- ------------  ---------------
    12     35.196480  1 P  pz                10    -23.795501  1 P  px         
    11    -16.307332  1 P  py                 9     15.524612  1 P  pz         
    42    -14.773231  1 P  fxxz              47    -14.180343  1 P  fyyz       
    49    -13.845438  1 P  fzzz               7    -10.495801  1 P  px         
    45      9.786602  1 P  fxzz              15     -9.438323  1 P  pz         

 Vector  258  Occ=0.000000D+00  E= 8.161608D+00
              MO Center=  9.3D-02, -3.6D-02, -1.4D-01, r^2= 1.6D+00
   Bfn.  Coefficient  Atom+Function         Bfn.  Coefficient  Atom+Function  
  ----- ------------  ---------------      ----- ------------  ---------------
    10     36.694932  1 P  px                11    -22.892383  1 P  py         
     7     16.185512  1 P  px                45    -15.076326  1 P  fxzz       
    40    -14.601080  1 P  fxxx              43    -14.609659  1 P  fxyy       
    12     14.195509  1 P  pz                 8    -10.097446  1 P  py         
    13     -9.839632  1 P  px                41      9.390197  1 P  fxxy       

 Vector  259  Occ=0.000000D+00  E= 1.188416D+01
              MO Center= -1.8D-03, -1.0D-03, -3.4D-02, r^2= 3.5D+00
   Bfn.  Coefficient  Atom+Function         Bfn.  Coefficient  Atom+Function  
  ----- ------------  ---------------      ----- ------------  ---------------
     3     14.116543  1 P  s                  5     11.021087  1 P  s          
     2      9.553460  1 P  s                 63     -8.073656  2 O  s          
   118     -8.079022  3 O  s                173     -8.074267  4 O  s          
   228     -8.068591  5 O  s                183      7.543563  4 O  pz         
    72      7.131677  2 O  py               126      6.157753  3 O  px         

 Vector  260  Occ=0.000000D+00  E= 1.211630D+01
              MO Center= -2.2D-01,  7.9D-03, -7.1D-02, r^2= 3.4D+00
   Bfn.  Coefficient  Atom+Function         Bfn.  Coefficient  Atom+Function  
  ----- ------------  ---------------      ----- ------------  ---------------
   226      7.016343  5 O  s                 61     -5.967539  2 O  s          
   171     -5.549885  4 O  s                 57      5.421426  1 P  fyyz       
    11     -4.499650  1 P  py               116      4.485390  3 O  s          
    22      4.270040  1 P  dxx               17     -4.126196  1 P  py         
    26      4.111057  1 P  dyz               58      3.770561  1 P  fyzz       

 Vector  261  Occ=0.000000D+00  E= 1.211864D+01
              MO Center=  1.8D-01, -3.7D-01, -1.8D-01, r^2= 3.3D+00
   Bfn.  Coefficient  Atom+Function         Bfn.  Coefficient  Atom+Function  
  ----- ------------  ---------------      ----- ------------  ---------------
   116      8.054391  3 O  s                 54      6.322940  1 P  fxyz       
   226     -6.324179  5 O  s                 23     -6.123367  1 P  dxy        
    10      4.802718  1 P  px               171     -4.691103  4 O  s          
    24     -4.413705  1 P  dxz               16      4.391399  1 P  px         
   115      4.267817  3 O  s                119     -4.075123  3 O  s          

 Vector  262  Occ=0.000000D+00  E= 1.211958D+01
              MO Center=  3.4D-02,  3.6D-01,  1.5D-01, r^2= 3.3D+00
   Bfn.  Coefficient  Atom+Function         Bfn.  Coefficient  Atom+Function  
  ----- ------------  ---------------      ----- ------------  ---------------
    61      7.572133  2 O  s                171     -7.005060  4 O  s          
    52      5.090128  1 P  fxxz             116     -4.113036  3 O  s          
    60      4.012233  2 O  s                 64     -3.823100  2 O  s          
    12     -3.791906  1 P  pz                25      3.698196  1 P  dyy        
   170     -3.711818  4 O  s                 51     -3.633158  1 P  fxxy       

 Vector  263  Occ=0.000000D+00  E= 1.355311D+01
              MO Center= -1.2D-01, -1.5D-01,  8.3D-03, r^2= 4.1D+00
   Bfn.  Coefficient  Atom+Function         Bfn.  Coefficient  Atom+Function  
  ----- ------------  ---------------      ----- ------------  ---------------
   235      7.920566  5 O  pz               124     -6.318906  3 O  py         
   179      6.236215  4 O  py                70     -5.987534  2 O  pz         
   178      5.906600  4 O  px               233     -4.474127  5 O  px         
   123     -4.432300  3 O  px               262     -4.022053  5 O  fxxz       
   267     -4.032376  5 O  fyyz             269     -3.984726  5 O  fzzz       

 Vector  264  Occ=0.000000D+00  E= 1.355402D+01
              MO Center= -2.2D-01,  1.4D-01, -3.4D-01, r^2= 4.0D+00
   Bfn.  Coefficient  Atom+Function         Bfn.  Coefficient  Atom+Function  
  ----- ------------  ---------------      ----- ------------  ---------------
    68      9.566317  2 O  px               234      7.962919  5 O  py         
   124     -6.138245  3 O  py               235     -5.102849  5 O  pz         
   100     -4.855111  2 O  fxzz              95     -4.830399  2 O  fxxx       
    98     -4.819491  2 O  fxyy             178     -4.645945  4 O  px         
   268     -4.068283  5 O  fyzz             261     -4.042869  5 O  fxxy       

 Vector  265  Occ=0.000000D+00  E= 1.355488D+01
              MO Center=  3.2D-01, -1.1D-02,  2.2D-01, r^2= 4.0D+00
   Bfn.  Coefficient  Atom+Function         Bfn.  Coefficient  Atom+Function  
  ----- ------------  ---------------      ----- ------------  ---------------
   125      8.969621  3 O  pz               179      7.473187  4 O  py         
    70     -7.058565  2 O  pz               178     -6.684730  4 O  px         
   152     -4.576064  3 O  fxxz             157     -4.547579  3 O  fyyz       
   159     -4.512239  3 O  fzzz             213     -3.797507  4 O  fyzz       
   206     -3.771094  4 O  fxxy             211     -3.769876  4 O  fyyy       

 Vector  266  Occ=0.000000D+00  E= 1.358673D+01
              MO Center=  9.9D-03, -3.9D-03, -2.6D-02, r^2= 4.1D+00
   Bfn.  Coefficient  Atom+Function         Bfn.  Coefficient  Atom+Function  
  ----- ------------  ---------------      ----- ------------  ---------------
   179      7.398563  4 O  py               124     -7.098364  3 O  py         
    70      6.929967  2 O  pz               235     -6.483802  5 O  pz         
   123     -4.286088  3 O  px               233      4.199565  5 O  px         
   178      3.806337  4 O  px               213     -3.783889  4 O  fyzz       
   206     -3.725882  4 O  fxxy             211     -3.725877  4 O  fyyy       

 Vector  267  Occ=0.000000D+00  E= 1.358922D+01
              MO Center=  1.7D-03,  1.1D-02, -3.1D-02, r^2= 4.1D+00
   Bfn.  Coefficient  Atom+Function         Bfn.  Coefficient  Atom+Function  
  ----- ------------  ---------------      ----- ------------  ---------------
   125     -7.720243  3 O  pz                68      7.456790  2 O  px         
   178     -7.409175  4 O  px               234     -6.728218  5 O  py         
   235      4.162494  5 O  pz               152      3.917354  3 O  fxxz       
   157      3.895640  3 O  fyyz             159      3.895522  3 O  fzzz       
    98     -3.808554  2 O  fxyy             210      3.789563  4 O  fxzz       

 Vector  268  Occ=0.000000D+00  E= 1.390189D+01
              MO Center= -4.4D-02,  9.9D-03, -8.8D-02, r^2= 4.1D+00
   Bfn.  Coefficient  Atom+Function         Bfn.  Coefficient  Atom+Function  
  ----- ------------  ---------------      ----- ------------  ---------------
   235      7.439164  5 O  pz                68     -6.762230  2 O  px         
   178     -6.770974  4 O  px               124     -5.327741  3 O  py         
    70      5.243102  2 O  pz               125      5.082399  3 O  pz         
   233     -4.084145  5 O  px               238      4.087627  5 O  pz         
   262     -3.864062  5 O  fxxz             267     -3.825639  5 O  fyyz       

 Vector  269  Occ=0.000000D+00  E= 1.390198D+01
              MO Center=  3.9D-02, -3.5D-02,  1.5D-02, r^2= 4.1D+00
   Bfn.  Coefficient  Atom+Function         Bfn.  Coefficient  Atom+Function  
  ----- ------------  ---------------      ----- ------------  ---------------
   179      8.498265  4 O  py               124      6.840126  3 O  py         
   234      6.614976  5 O  py                70      6.497157  2 O  pz         
    69      4.610609  2 O  py               213     -4.341555  4 O  fyzz       
   206     -4.294035  4 O  fxxy             211     -4.313638  4 O  fyyy       
   182      4.206210  4 O  py               125      4.011352  3 O  pz         

 Vector  270  Occ=0.000000D+00  E= 1.390336D+01
              MO Center=  1.2D-02,  2.6D-02, -2.4D-02, r^2= 4.1D+00
   Bfn.  Coefficient  Atom+Function         Bfn.  Coefficient  Atom+Function  
  ----- ------------  ---------------      ----- ------------  ---------------
    68      7.250631  2 O  px               178      7.254171  4 O  px         
   125      6.866671  3 O  pz               234     -5.623121  5 O  py         
    70      4.440594  2 O  pz               235      4.271635  5 O  pz         
   123      4.199180  3 O  px               233      4.086075  5 O  px         
   128      3.871213  3 O  pz               179     -3.811234  4 O  py         

 Vector  271  Occ=0.000000D+00  E= 1.586880D+01
              MO Center= -6.1D-01,  2.7D-03, -2.2D-01, r^2= 3.5D+00
   Bfn.  Coefficient  Atom+Function         Bfn.  Coefficient  Atom+Function  
  ----- ------------  ---------------      ----- ------------  ---------------
   233      9.562286  5 O  px               236      8.732619  5 O  px         
    69      7.514961  2 O  py               180      6.230511  4 O  pz         
    72      6.133025  2 O  py                11      5.375547  1 P  py         
   183      5.357386  4 O  pz               260     -5.097199  5 O  fxxx       
   263     -5.068712  5 O  fxyy             265     -5.059074  5 O  fxzz       

 Vector  272  Occ=0.000000D+00  E= 1.587018D+01
              MO Center=  4.1D-01, -2.7D-01,  2.5D-01, r^2= 3.6D+00
   Bfn.  Coefficient  Atom+Function         Bfn.  Coefficient  Atom+Function  
  ----- ------------  ---------------      ----- ------------  ---------------
   180      9.673853  4 O  pz               183      8.352132  4 O  pz         
   123     -8.195820  3 O  px               126     -6.958749  3 O  px         
   124      5.379508  3 O  py               127      5.332122  3 O  py         
   207     -5.128709  4 O  fxxz             212     -5.126790  4 O  fyyz       
   214     -5.128013  4 O  fzzz              12      4.764129  1 P  pz         

 Vector  273  Occ=0.000000D+00  E= 1.587050D+01
              MO Center=  1.9D-01,  2.7D-01, -1.3D-01, r^2= 3.8D+00
   Bfn.  Coefficient  Atom+Function         Bfn.  Coefficient  Atom+Function  
  ----- ------------  ---------------      ----- ------------  ---------------
    69      9.259175  2 O  py                72      8.145327  2 O  py         
   180     -7.077770  4 O  pz               123     -6.545704  3 O  px         
   183     -6.118272  4 O  pz               126     -5.449115  3 O  px         
    96     -4.931468  2 O  fxxy             101     -4.916556  2 O  fyyy       
   103     -4.885258  2 O  fyzz             106     -4.570745  2 O  fxxy       

 Vector  274  Occ=0.000000D+00  E= 1.659662D+01
              MO Center=  5.8D-04, -2.6D-04, -3.4D-02, r^2= 3.8D+00
   Bfn.  Coefficient  Atom+Function         Bfn.  Coefficient  Atom+Function  
  ----- ------------  ---------------      ----- ------------  ---------------
     5     48.254602  1 P  s                183     18.164820  4 O  pz         
    63    -17.273609  2 O  s                118    -17.273519  3 O  s          
   173    -17.268196  4 O  s                228    -17.287671  5 O  s          
    72     17.165909  2 O  py               126     14.820065  3 O  px         
   236    -14.841382  5 O  px                22      9.258672  1 P  dxx        

 Vector  275  Occ=0.000000D+00  E= 1.701166D+01
              MO Center= -8.5D-01, -1.8D-01, -3.2D-01, r^2= 2.1D+00
   Bfn.  Coefficient  Atom+Function         Bfn.  Coefficient  Atom+Function  
  ----- ------------  ---------------      ----- ------------  ---------------
   228     10.627860  5 O  s                 63     -6.018683  2 O  s          
   226      5.172346  5 O  s                173     -4.358584  4 O  s          
   233     -4.320606  5 O  px               251     -4.307356  5 O  dyy        
   253     -4.295724  5 O  dzz              236     -4.267801  5 O  px         
   248     -4.256228  5 O  dxx              254     -3.520143  5 O  dxx        

 Vector  276  Occ=0.000000D+00  E= 1.701294D+01
              MO Center=  8.4D-01, -5.1D-01, -2.3D-01, r^2= 1.9D+00
   Bfn.  Coefficient  Atom+Function         Bfn.  Coefficient  Atom+Function  
  ----- ------------  ---------------      ----- ------------  ---------------
   118     11.135623  3 O  s                116      5.403805  3 O  s          
   173     -5.132234  4 O  s                143     -4.486985  3 O  dzz        
   138     -4.464161  3 O  dxx              141     -4.466416  3 O  dyy        
   123      4.406989  3 O  px               126      4.192124  3 O  px         
   144     -3.572406  3 O  dxx              228     -3.265038  5 O  s          

 Vector  277  Occ=0.000000D+00  E= 1.701342D+01
              MO Center=  3.8D-03,  6.9D-01,  4.4D-01, r^2= 2.2D+00
   Bfn.  Coefficient  Atom+Function         Bfn.  Coefficient  Atom+Function  
  ----- ------------  ---------------      ----- ------------  ---------------
    63      9.102561  2 O  s                173     -9.008658  4 O  s          
    61      4.420176  2 O  s                171     -4.371683  4 O  s          
   180     -4.364361  4 O  pz                69      4.272743  2 O  py         
    72      4.212935  2 O  py               183     -4.138760  4 O  pz         
    52     -3.982058  1 P  fxxz              88     -3.711428  2 O  dzz        

 Vector  278  Occ=0.000000D+00  E= 1.737284D+01
              MO Center=  2.4D-03,  6.6D-04, -3.3D-02, r^2= 3.2D+00
   Bfn.  Coefficient  Atom+Function         Bfn.  Coefficient  Atom+Function  
  ----- ------------  ---------------      ----- ------------  ---------------
     5     41.587531  1 P  s                183     17.325626  4 O  pz         
    72     16.376507  2 O  py                 3     16.222143  1 P  s          
   126     14.136538  3 O  px               236    -14.159174  5 O  px         
     2     11.060956  1 P  s                204     -8.694439  4 O  dzz        
    63     -8.600937  2 O  s                118     -8.604015  3 O  s          

 Vector  279  Occ=0.000000D+00  E= 1.887013D+01
              MO Center=  3.6D-04, -8.1D-04, -3.4D-02, r^2= 4.2D+00
   Bfn.  Coefficient  Atom+Function         Bfn.  Coefficient  Atom+Function  
  ----- ------------  ---------------      ----- ------------  ---------------
     3     41.126153  1 P  s                  5    -34.245223  1 P  s          
     2     27.797783  1 P  s                  4     -7.414576  1 P  s          
    64     -7.320648  2 O  s                119     -7.321827  3 O  s          
   174     -7.320497  4 O  s                229     -7.321042  5 O  s          
    34      6.749248  1 P  dxx               37      6.751088  1 P  dyy        


 center of mass
 --------------
 x =   0.00034327 y =  -0.00122259 z =  -0.06364514

 moments of inertia (a.u.)
 ------------------
         394.267596919641           0.020993033242          -0.038389421955
           0.020993033242         394.412778959407           0.142062535234
          -0.038389421955           0.142062535234         394.324192308209

     Multipole analysis of the density
     ---------------------------------

     L   x y z        total         alpha         beta         nuclear
     -   - - -        -----         -----         ----         -------
     0   0 0 0     -1.000000    -24.000000    -24.000000     47.000000

     1   1 0 0      1.069241      0.526545      0.526545      0.016151
     1   0 1 0     -0.063710     -0.003116     -0.003116     -0.057478
     1   0 0 1      0.730736      1.861010      1.861010     -2.991284

     2   2 0 0    -33.070762    -65.859747    -65.859747     98.648732
     2   1 1 0     -1.898571     -0.944026     -0.944026     -0.010520
     2   1 0 1     -1.263973     -0.641073     -0.641073      0.018173
     2   0 2 0    -33.258252    -65.917217    -65.917217     98.576182
     2   0 1 1      0.064030      0.065713      0.065713     -0.067396
     2   0 0 2    -30.807857    -64.809327    -64.809327     98.810798

 ------------------------------------------------------------------------
 dft energy failed                                                                                  0
 ------------------------------------------------------------------------
 ------------------------------------------------------------------------
  current input line : 
    31: task dft energy
 ------------------------------------------------------------------------
 ------------------------------------------------------------------------
 This type of error is most commonly associated with calculations not reaching convergence criteria
 ------------------------------------------------------------------------
 For more information see the NWChem manual at https://nwchemgit.github.io


 For further details see manual section:                                                                                                                                                                                                                                                                
