 argument  1 = m1e/mol.nwi
                                         
                                         


             Northwest Computational Chemistry Package (NWChem) 7.2.2
             --------------------------------------------------------


                    Environmental Molecular Sciences Laboratory
                       Pacific Northwest National Laboratory
                                Richland, WA 99352

                              Copyright (c) 1994-2022
                       Pacific Northwest National Laboratory
                            Battelle Memorial Institute

             NWChem is an open-source computational chemistry package
                        distributed under the terms of the
                      Educational Community License (ECL) 2.0
             A copy of the license is included with this distribution
                              in the LICENSE.TXT file

                                  ACKNOWLEDGMENT
                                  --------------

            This software and its documentation were developed at the
            EMSL at Pacific Northwest National Laboratory, a multiprogram
            national laboratory, operated for the U.S. Department of Energy
            by Battelle under Contract Number DE-AC05-76RL01830. Support
            for this work was provided by the Department of Energy Office
            of Biological and Environmental Research, Office of Basic
            Energy Sciences, and the Office of Advanced Scientific Computing.


           Job information
           ---------------

    hostname        = r222.ib.bridges2.psc.edu
    program         = nwchem
    date            = Tue Oct  1 14:53:30 2024

    compiled        = Mon_Mar_18_17:03:37_2024
    source          = /ocean/projects/pscstaff/mmadrid/nwchem-7.2.2
    nwchem branch   = 7.2.2
    nwchem revision = 74936fb9
    ga revision     = 5.8.0
    use scalapack   = F
    input           = m1e/mol.nwi
    prefix          = dft.
    data base       = .//dft.db
    status          = startup
    nproc           =       15
    time left       =     -1s



           Memory information
           ------------------

    heap     =   67108862 doubles =    512.0 Mbytes
    stack    =   67108859 doubles =    512.0 Mbytes
    global   =  134217728 doubles =   1024.0 Mbytes (distinct from heap & stack)
    total    =  268435449 doubles =   2048.0 Mbytes
    verify   = yes
    hardfail = no 


           Directory information
           ---------------------

  0 permanent = ./
  0 scratch   = /jet/home/hmt47/nwchem_scratch/




                                NWChem Input Module
                                -------------------


  library name resolved from: environment
  library file name is: </opt/packages/nwchem/nwchem7.2.2/share/nwchem/libraries/>
  


 Summary of "ao basis" -> "" (cartesian)
 ------------------------------------------------------------------------------
       Tag                 Description            Shells   Functions and Types
 ---------------- ------------------------------  ------  ---------------------
 *                        aug-cc-pVTZ                 on all atoms 


  pbe96 is a nonlocal functional; adding pw91lda local functional. 

 Scaling coordinates for geometry "geometry" by  1.889725989
 (inverse scale =  0.529177249)



                             Geometry "geometry" -> ""
                             -------------------------

 Output coordinates in angstroms (scale by  1.889725989 to convert to a.u.)

  No.       Tag          Charge          X              Y              Z
 ---- ---------------- ---------- -------------- -------------- --------------
    1 C                    6.0000     0.00000000     0.00000000     0.00000000
    2 C                    6.0000    -0.04681100    -0.00259800     1.56343700
    3 O                    8.0000     0.57314700     0.98894700    -0.53242500
    4 O                    8.0000    -0.55729500    -1.00301000    -0.52811500
    5 Cl                  17.0000     0.77182800     1.41142800     2.25418600
    6 Cl                  17.0000    -1.77231500     0.01344300     2.03771100
    7 Cl                  17.0000     0.75675700    -1.49547500     2.12845400

      Atomic Mass 
      ----------- 

      C                 12.000000
      O                 15.994910
      Cl                34.968850


 Effective nuclear repulsion energy (a.u.)     527.0246897175

            Nuclear Dipole moment (a.u.) 
            ----------------------------
        X                 Y               Z
 ---------------- ---------------- ----------------
    -8.1210218469    -2.5102364142   207.9497355716


            XYZ format geometry
            -------------------
     7
 geometry
 C                     0.00000000     0.00000000     0.00000000
 C                    -0.04681100    -0.00259800     1.56343700
 O                     0.57314700     0.98894700    -0.53242500
 O                    -0.55729500    -1.00301000    -0.52811500
 Cl                    0.77182800     1.41142800     2.25418600
 Cl                   -1.77231500     0.01344300     2.03771100
 Cl                    0.75675700    -1.49547500     2.12845400

 ==============================================================================
                                internuclear distances
 ------------------------------------------------------------------------------
       center one      |      center two      | atomic units |  angstroms
 ------------------------------------------------------------------------------
    2 C                |   1 C                |     2.95580  |     1.56414
    3 O                |   1 C                |     2.38285  |     1.26095
    4 O                |   1 C                |     2.38698  |     1.26314
    5 Cl               |   2 C                |     3.35221  |     1.77391
    6 Cl               |   2 C                |     3.38180  |     1.78957
    7 Cl               |   2 C                |     3.37709  |     1.78708
 ------------------------------------------------------------------------------
                         number of included internuclear distances:          6
 ==============================================================================



 ==============================================================================
                                 internuclear angles
 ------------------------------------------------------------------------------
        center 1       |       center 2       |       center 3       |  degrees
 ------------------------------------------------------------------------------
    2 C                |   1 C                |   3 O                |   115.91
    2 C                |   1 C                |   4 O                |   113.79
    3 O                |   1 C                |   4 O                |   130.30
    1 C                |   2 C                |   5 Cl               |   111.97
    1 C                |   2 C                |   6 Cl               |   107.08
    1 C                |   2 C                |   7 Cl               |   107.70
    5 Cl               |   2 C                |   6 Cl               |   109.55
    5 Cl               |   2 C                |   7 Cl               |   109.59
    6 Cl               |   2 C                |   7 Cl               |   110.93
 ------------------------------------------------------------------------------
                            number of included internuclear angles:          9
 ==============================================================================





                           NWChem Geometry Optimization
                           ----------------------------


 maximum gradient threshold         (gmax) =   0.000450
 rms gradient threshold             (grms) =   0.000300
 maximum cartesian step threshold   (xmax) =   0.001800
 rms cartesian step threshold       (xrms) =   0.001200
 fixed trust radius                (trust) =   0.300000
 maximum step size to saddle      (sadstp) =   0.100000
 energy precision                  (eprec) =   5.0D-06
 maximum number of steps          (nptopt) =   40
 initial hessian option           (inhess) =    0
 line search option               (linopt) =    1
 hessian update option            (modupd) =    1
 saddle point option              (modsad) =    0
 initial eigen-mode to follow     (moddir) =    0
 initial variable to follow       (vardir) =    0
 follow first negative mode     (firstneg) =    T
 apply conjugacy                    (opcg) =    F
 source of zmatrix                         =           


          -------------------
          Energy Minimization
          -------------------


 Using diagonal initial Hessian 

          --------
          Step   0
          --------


                         Geometry "geometry" -> "geometry"
                         ---------------------------------

 Output coordinates in angstroms (scale by  1.889725989 to convert to a.u.)

  No.       Tag          Charge          X              Y              Z
 ---- ---------------- ---------- -------------- -------------- --------------
    1 C                    6.0000     0.00000000     0.00000000     0.00000000
    2 C                    6.0000    -0.04681100    -0.00259800     1.56343700
    3 O                    8.0000     0.57314700     0.98894700    -0.53242500
    4 O                    8.0000    -0.55729500    -1.00301000    -0.52811500
    5 Cl                  17.0000     0.77182800     1.41142800     2.25418600
    6 Cl                  17.0000    -1.77231500     0.01344300     2.03771100
    7 Cl                  17.0000     0.75675700    -1.49547500     2.12845400

      Atomic Mass 
      ----------- 

      C                 12.000000
      O                 15.994910
      Cl                34.968850


 Effective nuclear repulsion energy (a.u.)     527.0246897175

            Nuclear Dipole moment (a.u.) 
            ----------------------------
        X                 Y               Z
 ---------------- ---------------- ----------------
    -8.1210218469    -2.5102364142   207.9497355716


                                 NWChem DFT Module
                                 -----------------


                      Basis "ao basis" -> "ao basis" (cartesian)
                      -----
  C (Carbon)
  ----------
            Exponent  Coefficients 
       -------------- ---------------------------------------------------------
  1 S  8.23600000E+03  0.000531
  1 S  1.23500000E+03  0.004108
  1 S  2.80800000E+02  0.021087
  1 S  7.92700000E+01  0.081853
  1 S  2.55900000E+01  0.234817
  1 S  8.99700000E+00  0.434401
  1 S  3.31900000E+00  0.346129
  1 S  3.64300000E-01 -0.008983

  2 S  8.23600000E+03 -0.000113
  2 S  1.23500000E+03 -0.000878
  2 S  2.80800000E+02 -0.004540
  2 S  7.92700000E+01 -0.018133
  2 S  2.55900000E+01 -0.055760
  2 S  8.99700000E+00 -0.126895
  2 S  3.31900000E+00 -0.170352
  2 S  3.64300000E-01  0.598684

  3 S  9.05900000E-01  1.000000

  4 S  1.28500000E-01  1.000000

  5 S  4.40200000E-02  1.000000

  6 P  1.87100000E+01  0.014031
  6 P  4.13300000E+00  0.086866
  6 P  1.20000000E+00  0.290216

  7 P  3.82700000E-01  1.000000

  8 P  1.20900000E-01  1.000000

  9 P  3.56900000E-02  1.000000

 10 D  1.09700000E+00  1.000000

 11 D  3.18000000E-01  1.000000

 12 D  1.00000000E-01  1.000000

 13 F  7.61000000E-01  1.000000

 14 F  2.68000000E-01  1.000000

  O (Oxygen)
  ----------
            Exponent  Coefficients 
       -------------- ---------------------------------------------------------
  1 S  1.53300000E+04  0.000508
  1 S  2.29900000E+03  0.003929
  1 S  5.22400000E+02  0.020243
  1 S  1.47300000E+02  0.079181
  1 S  4.75500000E+01  0.230687
  1 S  1.67600000E+01  0.433118
  1 S  6.20700000E+00  0.350260
  1 S  6.88200000E-01 -0.008154

  2 S  1.53300000E+04 -0.000115
  2 S  2.29900000E+03 -0.000895
  2 S  5.22400000E+02 -0.004636
  2 S  1.47300000E+02 -0.018724
  2 S  4.75500000E+01 -0.058463
  2 S  1.67600000E+01 -0.136463
  2 S  6.20700000E+00 -0.175740
  2 S  6.88200000E-01  0.603418

  3 S  1.75200000E+00  1.000000

  4 S  2.38400000E-01  1.000000

  5 S  7.37600000E-02  1.000000

  6 P  3.44600000E+01  0.015928
  6 P  7.74900000E+00  0.099740
  6 P  2.28000000E+00  0.310492

  7 P  7.15600000E-01  1.000000

  8 P  2.14000000E-01  1.000000

  9 P  5.97400000E-02  1.000000

 10 D  2.31400000E+00  1.000000

 11 D  6.45000000E-01  1.000000

 12 D  2.14000000E-01  1.000000

 13 F  1.42800000E+00  1.000000

 14 F  5.00000000E-01  1.000000

  Cl (Chlorine)
  -------------
            Exponent  Coefficients 
       -------------- ---------------------------------------------------------
  1 S  4.56100000E+05  0.000049
  1 S  6.83300000E+04  0.000383
  1 S  1.55500000E+04  0.002009
  1 S  4.40500000E+03  0.008386
  1 S  1.43900000E+03  0.029470
  1 S  5.20400000E+02  0.087833
  1 S  2.03100000E+02  0.211473
  1 S  8.39600000E+01  0.365364
  1 S  3.62000000E+01  0.340884
  1 S  1.58300000E+01  0.102133
  1 S  6.33400000E+00  0.003117
  1 S  2.69400000E+00  0.001058
  1 S  4.31300000E-01  0.000156

  2 S  4.56100000E+05 -0.000014
  2 S  6.83300000E+04 -0.000107
  2 S  1.55500000E+04 -0.000565
  2 S  4.40500000E+03 -0.002361
  2 S  1.43900000E+03 -0.008459
  2 S  5.20400000E+02 -0.025964
  2 S  2.03100000E+02 -0.068636
  2 S  8.39600000E+01 -0.141874
  2 S  3.62000000E+01 -0.199319
  2 S  1.58300000E+01 -0.019566
  2 S  6.33400000E+00  0.499741
  2 S  2.69400000E+00  0.563736
  2 S  4.31300000E-01 -0.008351

  3 S  4.56100000E+05  0.000004
  3 S  6.83300000E+04  0.000032
  3 S  1.55500000E+04  0.000171
  3 S  4.40500000E+03  0.000714
  3 S  1.43900000E+03  0.002567
  3 S  5.20400000E+02  0.007886
  3 S  2.03100000E+02  0.021087
  3 S  8.39600000E+01  0.044226
  3 S  3.62000000E+01  0.065167
  3 S  1.58300000E+01  0.006030
  3 S  6.33400000E+00 -0.206495
  3 S  2.69400000E+00 -0.405871
  3 S  4.31300000E-01  0.725661

  4 S  9.76800000E-01  1.000000

  5 S  1.62500000E-01  1.000000

  6 S  5.91000000E-02  1.000000

  7 P  6.63300000E+02  0.002404
  7 P  1.56800000E+02  0.019215
  7 P  4.99800000E+01  0.088510
  7 P  1.84200000E+01  0.256020
  7 P  7.24000000E+00  0.436927
  7 P  2.92200000E+00  0.350334
  7 P  3.81800000E-01 -0.004584

  8 P  6.63300000E+02 -0.000652
  8 P  1.56800000E+02 -0.005194
  8 P  4.99800000E+01 -0.024694
  8 P  1.84200000E+01 -0.072817
  8 P  7.24000000E+00 -0.134030
  8 P  2.92200000E+00 -0.094774
  8 P  3.81800000E-01  0.564667

  9 P  1.02200000E+00  1.000000

 10 P  1.30100000E-01  1.000000

 11 P  4.19000000E-02  1.000000

 12 D  1.04600000E+00  1.000000

 13 D  3.44000000E-01  1.000000

 14 D  1.35000000E-01  1.000000

 15 F  7.06000000E-01  1.000000

 16 F  3.12000000E-01  1.000000



 Summary of "ao basis" -> "ao basis" (cartesian)
 ------------------------------------------------------------------------------
       Tag                 Description            Shells   Functions and Types
 ---------------- ------------------------------  ------  ---------------------
 C                        aug-cc-pVTZ               14       55   5s4p3d2f
 O                        aug-cc-pVTZ               14       55   5s4p3d2f
 Cl                       aug-cc-pVTZ               16       59   6s5p3d2f




 Summary of "ao basis" -> "ao basis" (cartesian)
 ------------------------------------------------------------------------------
       Tag                 Description            Shells   Functions and Types
 ---------------- ------------------------------  ------  ---------------------
 C                        aug-cc-pVTZ               14       55   5s4p3d2f
 O                        aug-cc-pVTZ               14       55   5s4p3d2f
 Cl                       aug-cc-pVTZ               16       59   6s5p3d2f


  Caching 1-el integrals 

            General Information
            -------------------
          SCF calculation type: DFT
          Wavefunction type:  closed shell.
          No. of atoms     :     7
          No. of electrons :    80
           Alpha electrons :    40
            Beta electrons :    40
          Charge           :    -1
          Spin multiplicity:     1
          Use of symmetry is: off; symmetry adaption is: off
          Maximum number of iterations: 200
          AO basis - number of functions:   397
                     number of shells:   104
          Convergence on energy requested:  1.00D-06
          Convergence on density requested:  1.00D-05
          Convergence on gradient requested:  5.00D-04

              XC Information
              --------------
          PerdewBurkeErnzerhof Exchange Functional  1.000          
            Perdew 1991 LDA Correlation Functional  1.000 local    
           PerdewBurkeErnz. Correlation Functional  1.000 non-local

             Grid Information
             ----------------
          Grid used for XC integration:  medium    
          Radial quadrature: Mura-Knowles        
          Angular quadrature: Lebedev. 
          Tag              B.-S. Rad. Rad. Pts. Rad. Cut. Ang. Pts.
          ---              ---------- --------- --------- ---------
          C                   0.70       49          12.0       434
          O                   0.60       49          14.0       434
          Cl                  1.00       88          13.0       590
          Grid pruning is: on 
          Number of quadrature shells:   460
          Spatial weights used:  Erf1

          Convergence Information
          -----------------------
          Convergence aids based upon iterative change in 
          total energy or number of iterations. 
          Levelshifting, if invoked, occurs when the 
          HOMO/LUMO gap drops below (HL_TOL):  1.00D-02
          DIIS, if invoked, will attempt to extrapolate 
          using up to (NFOCK): 10 stored Fock matrices.

                    Damping(40%)  Levelshifting(0.0)       DIIS
                  --------------- ------------------- ---------------
          dE  on:    start            0.00D+00            start   
          dE off:  200 iters          0.00D+00          200 iters 


      Screening Tolerance Information
      -------------------------------
          Density screening/tol_rho:  1.00D-10
          AO Gaussian exp screening on grid/accAOfunc:  14
          CD Gaussian exp screening on grid/accCDfunc:  20
          XC Gaussian exp screening on grid/accXCfunc:  20
          Schwarz screening/accCoul:  1.00D-08


 Forcing the number of linearly dependent vectors to be  0

      Superposition of Atomic Density Guess
      -------------------------------------

 Sum of atomic energies:       -1603.36368040
   Time after variat. SCF:      1.2
   Time prior to 1st pass:      1.2

 Grid_pts file          = /jet/home/hmt47/nwchem_scratch//dft.gridpts.00
 Record size in doubles =  12289        No. of grid_pts per rec  =   3070
 Max. records in memory =      8        Max. recs in file   =  67550051

 Grid integrated density:      78.999995320088
 Requested integration accuracy:   0.10E-05

           Memory utilization after 1st SCF pass: 
           Heap Space remaining (MW):       33.45            33446438
          Stack Space remaining (MW):       67.11            67106756

   convergence    iter        energy       DeltaE   RMS-Dens  Diis-err    time
 ---------------- ----- ----------------- --------- --------- ---------  ------
 d=40,ls=0.0,diis     1  -1607.5856474231 -2.13D+03  9.74D-03  4.89D+01     4.1
 Grid integrated density:      79.599996269866
 Requested integration accuracy:   0.10E-05
 d=40,ls=0.0,diis     2  -1607.0325148272  5.53D-01  1.50D-01  8.12D+00    16.4
 Grid integrated density:      79.839995767216
 Requested integration accuracy:   0.10E-05
 d=40,ls=0.0,diis     3  -1603.9706469674  3.06D+00  8.97D-02  1.08D+01    29.2
 Grid integrated density:      79.935996339783
 Requested integration accuracy:   0.10E-05
 d=40,ls=0.0,diis     4  -1606.2734105252 -2.30D+00  3.58D-02  1.14D+00    41.6
 Grid integrated density:      79.974396530804
 Requested integration accuracy:   0.10E-05
 d=40,ls=0.0,diis     5  -1606.5986895016 -3.25D-01  1.43D-02  5.99D-02    54.4
 Grid integrated density:      79.989756516593
 Requested integration accuracy:   0.10E-05
 d=40,ls=0.0,diis     6  -1606.6556657099 -5.70D-02  5.72D-03  4.39D-02    66.7
 Grid integrated density:      79.995900495195
 Requested integration accuracy:   0.10E-05
  Resetting Diis
 d=40,ls=0.0,diis     7  -1606.6718536216 -1.62D-02  2.29D-03  7.37D-02    79.1
 Grid integrated density:      79.998358108833
 Requested integration accuracy:   0.10E-05
 d=40,ls=0.0,diis     8  -1606.6793323798 -7.48D-03  3.67D-03  7.86D-02    91.7
 Grid integrated density:      79.999340757195
 Requested integration accuracy:   0.10E-05
 d=40,ls=0.0,diis     9  -1606.6695821107  9.75D-03  1.54D-03  1.38D-01   103.9
 Grid integrated density:      79.999734075636
 Requested integration accuracy:   0.10E-05
 d=40,ls=0.0,diis    10  -1606.6867587823 -1.72D-02  6.60D-04  2.03D-02   116.7
 Grid integrated density:      79.999891400882
 Requested integration accuracy:   0.10E-05
 d=40,ls=0.0,diis    11  -1606.6915317890 -4.77D-03  3.18D-04  2.68D-03   129.0
 d=40,ls=0.0,diis    12  -1606.6931081339 -1.58D-03  1.23D-04  4.29D-04   141.5
 d=40,ls=0.0,diis    13  -1606.6937021357 -5.94D-04  5.13D-05  5.60D-05   153.9
 d=40,ls=0.0,diis    14  -1606.6939326632 -2.31D-04  2.96D-05  6.94D-06   166.9
 d=40,ls=0.0,diis    15  -1606.6940239740 -9.13D-05  1.63D-05  9.73D-07   179.5
 d=40,ls=0.0,diis    16  -1606.6940603916 -3.64D-05  2.49D-05  1.68D-07   191.9
 d=40,ls=0.0,diis    17  -1606.6940749326 -1.45D-05  1.36D-05  3.20D-08   204.7
 d=40,ls=0.0,diis    18  -1606.6940807471 -5.81D-06  3.36D-06  8.12D-09   217.1
 d=40,ls=0.0,diis    19  -1606.6940830724 -2.33D-06  2.07D-06  3.58D-09   229.5
 d=40,ls=0.0,diis    20  -1606.6940840046 -9.32D-07  2.30D-06  2.01D-09   242.3


         Total DFT energy =    -1606.694084004587
      One electron energy =    -3280.079444004970
           Coulomb energy =     1258.444703578225
    Exchange-Corr. energy =     -112.084033295303
 Nuclear repulsion energy =      527.024689717462

 Numeric. integr. density =       79.999996253245

     Total iterative time =    241.1s



                       DFT Final Molecular Orbital Analysis
                       ------------------------------------

 Vector    1  Occ=2.000000D+00  E=-1.005734D+02
              MO Center=  7.6D-01, -1.5D+00,  2.1D+00, r^2= 4.8D-03
   Bfn.  Coefficient  Atom+Function         Bfn.  Coefficient  Atom+Function  
  ----- ------------  ---------------      ----- ------------  ---------------
   339      1.002105  7 Cl s                343     -0.046811  7 Cl s          
   344     -0.027061  7 Cl s                 60      0.025063  2 C  s          

 Vector    2  Occ=2.000000D+00  E=-1.005732D+02
              MO Center= -1.8D+00,  1.3D-02,  2.0D+00, r^2= 4.8D-03
   Bfn.  Coefficient  Atom+Function         Bfn.  Coefficient  Atom+Function  
  ----- ------------  ---------------      ----- ------------  ---------------
   280      1.002099  6 Cl s                284     -0.046965  6 Cl s          
   285     -0.027009  6 Cl s          

 Vector    3  Occ=2.000000D+00  E=-1.005690D+02
              MO Center=  7.7D-01,  1.4D+00,  2.3D+00, r^2= 3.1D-03
   Bfn.  Coefficient  Atom+Function         Bfn.  Coefficient  Atom+Function  
  ----- ------------  ---------------      ----- ------------  ---------------
   221      1.002232  5 Cl s                225     -0.045610  5 Cl s          
    59     -0.032351  2 C  s                 60      0.032119  2 C  s          
   226     -0.028032  5 Cl s          

 Vector    4  Occ=2.000000D+00  E=-1.854232D+01
              MO Center=  5.7D-01,  9.9D-01, -5.3D-01, r^2= 1.5D-02
   Bfn.  Coefficient  Atom+Function         Bfn.  Coefficient  Atom+Function  
  ----- ------------  ---------------      ----- ------------  ---------------
   111      0.982525  3 O  s                 59      0.088964  2 C  s          
   113      0.067559  3 O  s                  4     -0.052645  1 C  s          
    13     -0.051703  1 C  py                14      0.046401  1 C  pz         
    60     -0.044813  2 C  s                 50      0.033341  1 C  fxyz       
   225     -0.032747  5 Cl s                140      0.032510  3 O  dxx        

 Vector    5  Occ=2.000000D+00  E=-1.853932D+01
              MO Center= -5.6D-01, -1.0D+00, -5.3D-01, r^2= 1.5D-02
   Bfn.  Coefficient  Atom+Function         Bfn.  Coefficient  Atom+Function  
  ----- ------------  ---------------      ----- ------------  ---------------
   166      0.982951  4 O  s                168      0.068021  4 O  s          
   114      0.055821  3 O  s                169     -0.051153  4 O  s          
    59     -0.045572  2 C  s                 14      0.044311  1 C  pz         
    54     -0.041965  1 C  fyzz              13      0.037809  1 C  py         
    31     -0.035808  1 C  dxy               50      0.034686  1 C  fxyz       

 Vector    6  Occ=2.000000D+00  E=-9.907422D+00
              MO Center= -4.7D-02, -2.6D-03,  1.6D+00, r^2= 2.8D-02
   Bfn.  Coefficient  Atom+Function         Bfn.  Coefficient  Atom+Function  
  ----- ------------  ---------------      ----- ------------  ---------------
    56      1.010951  2 C  s                 59     -0.263150  2 C  s          
     4      0.100384  1 C  s                 57      0.081339  2 C  s          
    58      0.065994  2 C  s                 69      0.049238  2 C  pz         
    14      0.038418  1 C  pz               284      0.036297  6 Cl s          
   343      0.035722  7 Cl s                 66     -0.030250  2 C  pz         

 Vector    7  Occ=2.000000D+00  E=-9.815327D+00
              MO Center= -8.6D-07,  6.7D-08,  2.7D-05, r^2= 2.8D-02
   Bfn.  Coefficient  Atom+Function         Bfn.  Coefficient  Atom+Function  
  ----- ------------  ---------------      ----- ------------  ---------------
     1      1.012339  1 C  s                  2      0.084670  1 C  s          
     3      0.067837  1 C  s                  4     -0.062536  1 C  s          
   114     -0.061784  3 O  s                169     -0.051043  4 O  s          
    69     -0.037729  2 C  pz                33     -0.035670  1 C  dyy        
    27      0.035198  1 C  dyy               59      0.034659  2 C  s          

 Vector    8  Occ=2.000000D+00  E=-9.057562D+00
              MO Center=  7.6D-01, -1.5D+00,  2.1D+00, r^2= 6.6D-02
   Bfn.  Coefficient  Atom+Function         Bfn.  Coefficient  Atom+Function  
  ----- ------------  ---------------      ----- ------------  ---------------
   340      0.899130  7 Cl s                342      0.112226  7 Cl s          
   341     -0.031185  7 Cl s                 59      0.027779  2 C  s          

 Vector    9  Occ=2.000000D+00  E=-9.057391D+00
              MO Center= -1.8D+00,  1.3D-02,  2.0D+00, r^2= 6.6D-02
   Bfn.  Coefficient  Atom+Function         Bfn.  Coefficient  Atom+Function  
  ----- ------------  ---------------      ----- ------------  ---------------
   281      0.899149  6 Cl s                283      0.112237  6 Cl s          
   282     -0.031161  6 Cl s                 59      0.027290  2 C  s          

 Vector   10  Occ=2.000000D+00  E=-9.053388D+00
              MO Center=  7.7D-01,  1.4D+00,  2.3D+00, r^2= 6.6D-02
   Bfn.  Coefficient  Atom+Function         Bfn.  Coefficient  Atom+Function  
  ----- ------------  ---------------      ----- ------------  ---------------
   222      0.898987  5 Cl s                224      0.112135  5 Cl s          
    59      0.044249  2 C  s                 60     -0.035661  2 C  s          
   223     -0.031376  5 Cl s          

 Vector   11  Occ=2.000000D+00  E=-6.883509D+00
              MO Center=  7.6D-01, -1.5D+00,  2.1D+00, r^2= 6.3D-02
   Bfn.  Coefficient  Atom+Function         Bfn.  Coefficient  Atom+Function  
  ----- ------------  ---------------      ----- ------------  ---------------
   346      0.857444  7 Cl py               345     -0.476860  7 Cl px         
   347     -0.306762  7 Cl pz               349      0.103613  7 Cl py         
    59     -0.066821  2 C  s                348     -0.058105  7 Cl px         
    60     -0.050213  2 C  s                350     -0.039810  7 Cl pz         
   355      0.039923  7 Cl py               344      0.038889  7 Cl s          

 Vector   12  Occ=2.000000D+00  E=-6.883341D+00
              MO Center= -1.8D+00,  1.3D-02,  2.0D+00, r^2= 6.3D-02
   Bfn.  Coefficient  Atom+Function         Bfn.  Coefficient  Atom+Function  
  ----- ------------  ---------------      ----- ------------  ---------------
   286      0.995569  6 Cl px               288     -0.253100  6 Cl pz         
   289      0.119749  6 Cl px                59     -0.062607  2 C  s          
    60     -0.047010  2 C  s                295      0.045916  6 Cl px         
   322     -0.044466  6 Cl fxyy             324     -0.043874  6 Cl fxzz       
   319     -0.042249  6 Cl fxxx             285      0.038242  6 Cl s          

 Vector   13  Occ=2.000000D+00  E=-6.879316D+00
              MO Center=  7.7D-01,  1.4D+00,  2.3D+00, r^2= 5.8D-02
   Bfn.  Coefficient  Atom+Function         Bfn.  Coefficient  Atom+Function  
  ----- ------------  ---------------      ----- ------------  ---------------
   228      0.825303  5 Cl py               227      0.479012  5 Cl px         
   229      0.389267  5 Cl pz                59      0.110845  2 C  s          
   231      0.103533  5 Cl py               230      0.060046  5 Cl px         
   232      0.050906  5 Cl pz               237      0.039896  5 Cl py         
   226     -0.037861  5 Cl s                268     -0.036049  5 Cl fyzz       

 Vector   14  Occ=2.000000D+00  E=-6.872609D+00
              MO Center=  7.6D-01, -1.5D+00,  2.1D+00, r^2= 5.8D-02
   Bfn.  Coefficient  Atom+Function         Bfn.  Coefficient  Atom+Function  
  ----- ------------  ---------------      ----- ------------  ---------------
   345      0.840169  7 Cl px               347     -0.464299  7 Cl pz         
   346      0.302314  7 Cl py               348      0.066083  7 Cl px         
   350     -0.037181  7 Cl pz               351      0.036303  7 Cl px         
    86      0.032701  2 C  dxy               89     -0.031150  2 C  dyz        
    67      0.028985  2 C  px               354      0.028794  7 Cl px         

 Vector   15  Occ=2.000000D+00  E=-6.872429D+00
              MO Center= -1.8D+00,  1.3D-02,  2.0D+00, r^2= 5.8D-02
   Bfn.  Coefficient  Atom+Function         Bfn.  Coefficient  Atom+Function  
  ----- ------------  ---------------      ----- ------------  ---------------
   287      0.865041  6 Cl py               288     -0.502821  6 Cl pz         
   286     -0.108117  6 Cl px               290      0.068485  6 Cl py         
    86      0.046629  2 C  dxy              291     -0.040160  6 Cl pz         
   293      0.037248  6 Cl py                68      0.030405  2 C  py         
   296      0.029717  6 Cl py               343      0.028228  7 Cl s          

 Vector   16  Occ=2.000000D+00  E=-6.872098D+00
              MO Center=  7.6D-01, -1.5D+00,  2.1D+00, r^2= 5.8D-02
   Bfn.  Coefficient  Atom+Function         Bfn.  Coefficient  Atom+Function  
  ----- ------------  ---------------      ----- ------------  ---------------
   347      0.841966  7 Cl pz               346      0.463942  7 Cl py         
   345      0.298223  7 Cl px               350      0.067738  7 Cl pz         
     4      0.035879  1 C  s                353      0.035985  7 Cl pz         
   349      0.034531  7 Cl py                87     -0.030963  2 C  dxz        
    69      0.027124  2 C  pz               387     -0.027168  7 Cl fzzz       

 Vector   17  Occ=2.000000D+00  E=-6.871940D+00
              MO Center= -1.8D+00,  1.3D-02,  2.0D+00, r^2= 5.8D-02
   Bfn.  Coefficient  Atom+Function         Bfn.  Coefficient  Atom+Function  
  ----- ------------  ---------------      ----- ------------  ---------------
   288      0.836689  6 Cl pz               287      0.513862  6 Cl py         
   286      0.221077  6 Cl px               291      0.067104  6 Cl pz         
   290      0.040711  6 Cl py               294      0.035841  6 Cl pz         
     4      0.035393  1 C  s                 87      0.029485  2 C  dxz        
    69      0.027190  2 C  pz               326     -0.027037  6 Cl fyyz       

 Vector   18  Occ=2.000000D+00  E=-6.868425D+00
              MO Center=  7.7D-01,  1.4D+00,  2.3D+00, r^2= 5.8D-02
   Bfn.  Coefficient  Atom+Function         Bfn.  Coefficient  Atom+Function  
  ----- ------------  ---------------      ----- ------------  ---------------
   227      0.868538  5 Cl px               228     -0.507110  5 Cl py         
   230      0.067708  5 Cl px               231     -0.039566  5 Cl py         
   233      0.037800  5 Cl px               236      0.029068  5 Cl px         
   260     -0.027370  5 Cl fxxx             263     -0.027379  5 Cl fxyy       
   265     -0.027452  5 Cl fxzz              87     -0.027224  2 C  dxz        

 Vector   19  Occ=2.000000D+00  E=-6.867899D+00
              MO Center=  7.7D-01,  1.4D+00,  2.3D+00, r^2= 5.8D-02
   Bfn.  Coefficient  Atom+Function         Bfn.  Coefficient  Atom+Function  
  ----- ------------  ---------------      ----- ------------  ---------------
   229      0.933717  5 Cl pz               228     -0.323924  5 Cl py         
   227     -0.195912  5 Cl px               232      0.076931  5 Cl pz         
     4      0.045669  1 C  s                235      0.039273  5 Cl pz         
    89     -0.033719  2 C  dyz              262     -0.030861  5 Cl fxxz       
   267     -0.030603  5 Cl fyyz             269     -0.030692  5 Cl fzzz       

 Vector   20  Occ=2.000000D+00  E=-7.813998D-01
              MO Center=  5.6D-03,  7.4D-03, -1.4D-01, r^2= 1.5D+00
   Bfn.  Coefficient  Atom+Function         Bfn.  Coefficient  Atom+Function  
  ----- ------------  ---------------      ----- ------------  ---------------
     2      0.272873  1 C  s                112      0.269520  3 O  s          
   167      0.262392  4 O  s                114      0.157279  3 O  s          
   169      0.141801  4 O  s                 59      0.108904  2 C  s          
    57      0.107784  2 C  s                115      0.083660  3 O  s          
     3      0.077909  1 C  s                170      0.077806  4 O  s          

 Vector   21  Occ=2.000000D+00  E=-7.056675D-01
              MO Center= -2.8D-02,  3.4D-02,  1.7D+00, r^2= 2.7D+00
   Bfn.  Coefficient  Atom+Function         Bfn.  Coefficient  Atom+Function  
  ----- ------------  ---------------      ----- ------------  ---------------
    59      0.359382  2 C  s                341      0.261466  7 Cl s          
   282      0.259113  6 Cl s                223      0.245489  5 Cl s          
    57      0.240531  2 C  s                112     -0.161381  3 O  s          
   343      0.140845  7 Cl s                284      0.139846  6 Cl s          
   225      0.126832  5 Cl s                 60     -0.110745  2 C  s          

 Vector   22  Occ=2.000000D+00  E=-6.979831D-01
              MO Center= -2.6D-02, -5.6D-02, -2.6D-01, r^2= 1.6D+00
   Bfn.  Coefficient  Atom+Function         Bfn.  Coefficient  Atom+Function  
  ----- ------------  ---------------      ----- ------------  ---------------
   167      0.344396  4 O  s                112     -0.303458  3 O  s          
   169      0.292986  4 O  s                114     -0.270523  3 O  s          
     7     -0.140382  1 C  py               223     -0.099913  5 Cl s          
   168      0.095068  4 O  s                113     -0.083535  3 O  s          
     6     -0.079454  1 C  px                59     -0.070699  2 C  s          

 Vector   23  Occ=2.000000D+00  E=-6.199728D-01
              MO Center= -4.3D-01, -6.3D-01,  2.0D+00, r^2= 2.7D+00
   Bfn.  Coefficient  Atom+Function         Bfn.  Coefficient  Atom+Function  
  ----- ------------  ---------------      ----- ------------  ---------------
   341     -0.429954  7 Cl s                282      0.427190  6 Cl s          
   343     -0.310038  7 Cl s                284      0.306962  6 Cl s          
    61     -0.074575  2 C  px                64     -0.058239  2 C  px         
   285      0.057195  6 Cl s                344     -0.057024  7 Cl s          
    62      0.045445  2 C  py               342     -0.040087  7 Cl s          

 Vector   24  Occ=2.000000D+00  E=-6.147748D-01
              MO Center=  2.7D-01,  5.8D-01,  2.1D+00, r^2= 2.8D+00
   Bfn.  Coefficient  Atom+Function         Bfn.  Coefficient  Atom+Function  
  ----- ------------  ---------------      ----- ------------  ---------------
   223      0.491140  5 Cl s                225      0.355536  5 Cl s          
   282     -0.253548  6 Cl s                341     -0.246119  7 Cl s          
   284     -0.177025  6 Cl s                343     -0.172247  7 Cl s          
    62      0.072958  2 C  py               226      0.070197  5 Cl s          
   114     -0.068563  3 O  s                169      0.055699  4 O  s          

 Vector   25  Occ=2.000000D+00  E=-4.456973D-01
              MO Center= -6.5D-02, -3.0D-02,  1.5D+00, r^2= 3.4D+00
   Bfn.  Coefficient  Atom+Function         Bfn.  Coefficient  Atom+Function  
  ----- ------------  ---------------      ----- ------------  ---------------
    59      0.449940  2 C  s                 57      0.303067  2 C  s          
   282     -0.222436  6 Cl s                341     -0.221909  7 Cl s          
   225     -0.220415  5 Cl s                343     -0.220499  7 Cl s          
   223     -0.219110  5 Cl s                284     -0.219762  6 Cl s          
    11      0.123096  1 C  pz                 2      0.117183  1 C  s          

 Vector   26  Occ=2.000000D+00  E=-3.285714D-01
              MO Center= -1.8D-02,  2.1D-02,  1.3D+00, r^2= 3.2D+00
   Bfn.  Coefficient  Atom+Function         Bfn.  Coefficient  Atom+Function  
  ----- ------------  ---------------      ----- ------------  ---------------
    59      0.444768  2 C  s                 63      0.204003  2 C  pz         
     4     -0.196342  1 C  s                  2     -0.177840  1 C  s          
    66      0.172056  2 C  pz               225     -0.133037  5 Cl s          
   343     -0.124248  7 Cl s                284     -0.121428  6 Cl s          
     8     -0.111603  1 C  pz               223     -0.111125  5 Cl s          

 Vector   27  Occ=2.000000D+00  E=-2.924513D-01
              MO Center= -3.2D-01, -4.1D-01,  1.8D+00, r^2= 3.3D+00
   Bfn.  Coefficient  Atom+Function         Bfn.  Coefficient  Atom+Function  
  ----- ------------  ---------------      ----- ------------  ---------------
    61      0.177417  2 C  px               289     -0.162224  6 Cl px         
   349      0.158784  7 Cl py               292     -0.154172  6 Cl px         
    64      0.150533  2 C  px               352      0.146754  7 Cl py         
   282      0.130666  6 Cl s                341     -0.128319  7 Cl s          
   284      0.119950  6 Cl s                343     -0.117750  7 Cl s          

 Vector   28  Occ=2.000000D+00  E=-2.851529D-01
              MO Center=  1.8D-01,  3.8D-01,  1.9D+00, r^2= 3.3D+00
   Bfn.  Coefficient  Atom+Function         Bfn.  Coefficient  Atom+Function  
  ----- ------------  ---------------      ----- ------------  ---------------
    62      0.180481  2 C  py               225     -0.159618  5 Cl s          
   231     -0.148877  5 Cl py                65      0.147050  2 C  py         
   234     -0.147605  5 Cl py               223     -0.142385  5 Cl s          
   348      0.119490  7 Cl px                68      0.117345  2 C  py         
    61      0.105313  2 C  px               232     -0.103352  5 Cl pz         

 Vector   29  Occ=2.000000D+00  E=-2.347186D-01
              MO Center=  4.1D-02,  6.4D-02, -1.7D-01, r^2= 2.9D+00
   Bfn.  Coefficient  Atom+Function         Bfn.  Coefficient  Atom+Function  
  ----- ------------  ---------------      ----- ------------  ---------------
     2      0.215921  1 C  s                169     -0.206571  4 O  s          
     4      0.177776  1 C  s                112     -0.168052  3 O  s          
   117     -0.166110  3 O  py               167     -0.165675  4 O  s          
   114     -0.164213  3 O  s                172      0.157678  4 O  py         
   120     -0.154513  3 O  py               175      0.146935  4 O  py         

 Vector   30  Occ=2.000000D+00  E=-1.909356D-01
              MO Center= -2.4D-02, -3.5D-02, -2.5D-01, r^2= 3.0D+00
   Bfn.  Coefficient  Atom+Function         Bfn.  Coefficient  Atom+Function  
  ----- ------------  ---------------      ----- ------------  ---------------
   172      0.171028  4 O  py               175      0.162294  4 O  py         
   117      0.161034  3 O  py               120      0.153881  3 O  py         
     6     -0.147118  1 C  px                 7     -0.139837  1 C  py         
   112      0.131052  3 O  s                118     -0.131644  3 O  pz         
   167     -0.131270  4 O  s                121     -0.127201  3 O  pz         

 Vector   31  Occ=2.000000D+00  E=-1.908248D-01
              MO Center= -9.4D-02, -1.3D-01,  4.5D-01, r^2= 3.5D+00
   Bfn.  Coefficient  Atom+Function         Bfn.  Coefficient  Atom+Function  
  ----- ------------  ---------------      ----- ------------  ---------------
   171     -0.157053  4 O  px               174     -0.152233  4 O  px         
   116     -0.146387  3 O  px                 7      0.145271  1 C  py         
   119     -0.142034  3 O  px                 6     -0.128809  1 C  px         
     9     -0.116111  1 C  px               350      0.106468  7 Cl pz         
    10      0.105927  1 C  py               177     -0.102694  4 O  px         

 Vector   32  Occ=2.000000D+00  E=-1.677154D-01
              MO Center= -3.5D-01, -4.6D-01,  1.9D+00, r^2= 4.0D+00
   Bfn.  Coefficient  Atom+Function         Bfn.  Coefficient  Atom+Function  
  ----- ------------  ---------------      ----- ------------  ---------------
   290      0.227797  6 Cl py               348      0.188934  7 Cl px         
   293      0.175245  6 Cl py               351      0.136897  7 Cl px         
   232      0.128450  5 Cl pz               350     -0.117702  7 Cl pz         
   349      0.116740  7 Cl py               296      0.112631  6 Cl py         
   291     -0.111795  6 Cl pz               235      0.110913  5 Cl pz         

 Vector   33  Occ=2.000000D+00  E=-1.636194D-01
              MO Center=  1.7D-01,  3.3D-01,  1.8D+00, r^2= 4.2D+00
   Bfn.  Coefficient  Atom+Function         Bfn.  Coefficient  Atom+Function  
  ----- ------------  ---------------      ----- ------------  ---------------
   230      0.222462  5 Cl px               233      0.170505  5 Cl px         
   348      0.152937  7 Cl px               351      0.131898  7 Cl px         
   231     -0.129644  5 Cl py               290     -0.126342  6 Cl py         
   236      0.118324  5 Cl px               234     -0.098028  5 Cl py         
   293     -0.096876  6 Cl py               291     -0.093004  6 Cl pz         

 Vector   34  Occ=2.000000D+00  E=-1.459615D-01
              MO Center= -1.4D-01, -1.7D-01,  1.8D+00, r^2= 4.3D+00
   Bfn.  Coefficient  Atom+Function         Bfn.  Coefficient  Atom+Function  
  ----- ------------  ---------------      ----- ------------  ---------------
    59      0.261416  2 C  s                 60     -0.216370  2 C  s          
   350     -0.216595  7 Cl pz               291     -0.212215  6 Cl pz         
   232     -0.172698  5 Cl pz               353     -0.169020  7 Cl pz         
   294     -0.164932  6 Cl pz               235     -0.143490  5 Cl pz         
     8     -0.124102  1 C  pz               297     -0.121335  6 Cl pz         

 Vector   35  Occ=2.000000D+00  E=-1.378142D-01
              MO Center=  3.5D-01,  6.4D-01,  2.0D+00, r^2= 3.6D+00
   Bfn.  Coefficient  Atom+Function         Bfn.  Coefficient  Atom+Function  
  ----- ------------  ---------------      ----- ------------  ---------------
   232      0.284184  5 Cl pz               235      0.211759  5 Cl pz         
   231     -0.155959  5 Cl py               238      0.150605  5 Cl pz         
   234     -0.136006  5 Cl py               349     -0.121445  7 Cl py         
   290     -0.116635  6 Cl py               352     -0.106677  7 Cl py         
   350     -0.105882  7 Cl pz               237     -0.104619  5 Cl py         

 Vector   36  Occ=2.000000D+00  E=-1.351832D-01
              MO Center= -4.3D-01, -5.3D-01,  1.8D+00, r^2= 4.1D+00
   Bfn.  Coefficient  Atom+Function         Bfn.  Coefficient  Atom+Function  
  ----- ------------  ---------------      ----- ------------  ---------------
   291      0.241897  6 Cl pz               350     -0.216489  7 Cl pz         
   294      0.180232  6 Cl pz               348      0.171814  7 Cl px         
   353     -0.160816  7 Cl pz               297      0.147312  6 Cl pz         
   351      0.134988  7 Cl px               356     -0.131127  7 Cl pz         
   290     -0.122186  6 Cl py               354      0.104665  7 Cl px         

 Vector   37  Occ=2.000000D+00  E=-1.223926D-01
              MO Center=  2.3D-02,  1.6D-01,  2.1D+00, r^2= 4.1D+00
   Bfn.  Coefficient  Atom+Function         Bfn.  Coefficient  Atom+Function  
  ----- ------------  ---------------      ----- ------------  ---------------
   230      0.245404  5 Cl px               290      0.230912  6 Cl py         
   233      0.185333  5 Cl px               348     -0.185020  7 Cl px         
   293      0.173053  6 Cl py               236      0.154764  5 Cl px         
   296      0.148770  6 Cl py               231     -0.146351  5 Cl py         
   349     -0.136965  7 Cl py               351     -0.137166  7 Cl px         

 Vector   38  Occ=2.000000D+00  E=-5.610765D-02
              MO Center= -3.5D-02, -7.6D-02, -4.6D-01, r^2= 2.1D+00
   Bfn.  Coefficient  Atom+Function         Bfn.  Coefficient  Atom+Function  
  ----- ------------  ---------------      ----- ------------  ---------------
   171     -0.243716  4 O  px               174     -0.244726  4 O  px         
   119      0.227352  3 O  px               116      0.225995  3 O  px         
   177     -0.161887  4 O  px               122      0.153258  3 O  px         
   172      0.137258  4 O  py               175      0.137895  4 O  py         
   120     -0.129899  3 O  py               117     -0.129244  3 O  py         

 Vector   39  Occ=2.000000D+00  E=-5.002902D-02
              MO Center= -1.7D-02, -2.8D-02, -9.9D-02, r^2= 3.0D+00
   Bfn.  Coefficient  Atom+Function         Bfn.  Coefficient  Atom+Function  
  ----- ------------  ---------------      ----- ------------  ---------------
    59      0.245458  2 C  s                118     -0.234727  3 O  pz         
   173     -0.235368  4 O  pz               121     -0.233478  3 O  pz         
   176     -0.232875  4 O  pz               179     -0.161951  4 O  pz         
    60      0.157743  2 C  s                 69     -0.157242  2 C  pz         
   124     -0.157015  3 O  pz                57      0.154169  2 C  s          

 Vector   40  Occ=2.000000D+00  E=-2.975078D-02
              MO Center=  3.1D-02,  3.9D-02, -2.9D-01, r^2= 2.6D+00
   Bfn.  Coefficient  Atom+Function         Bfn.  Coefficient  Atom+Function  
  ----- ------------  ---------------      ----- ------------  ---------------
   118      0.212716  3 O  pz               121      0.210822  3 O  pz         
   173     -0.210308  4 O  pz               176     -0.209316  4 O  pz         
   120      0.158326  3 O  py               124      0.154923  3 O  pz         
   117      0.152968  3 O  py               175      0.150803  4 O  py         
   179     -0.149751  4 O  pz               172      0.145431  4 O  py         

 Vector   41  Occ=0.000000D+00  E= 7.036274D-02
              MO Center= -1.9D-01, -1.6D-01,  2.1D+00, r^2= 6.2D+00
   Bfn.  Coefficient  Atom+Function         Bfn.  Coefficient  Atom+Function  
  ----- ------------  ---------------      ----- ------------  ---------------
    60      2.253798  2 C  s                 59      1.800283  2 C  s          
     4     -1.143138  1 C  s                285     -0.769274  6 Cl s          
   344     -0.755916  7 Cl s                  5     -0.680945  1 C  s          
   226     -0.623499  5 Cl s                298     -0.441448  6 Cl px         
   358     -0.363874  7 Cl py                14     -0.341423  1 C  pz         

 Vector   42  Occ=0.000000D+00  E= 9.362648D-02
              MO Center= -3.7D-01, -5.6D-01,  1.8D+00, r^2= 7.3D+00
   Bfn.  Coefficient  Atom+Function         Bfn.  Coefficient  Atom+Function  
  ----- ------------  ---------------      ----- ------------  ---------------
   344      1.437510  7 Cl s                285     -1.304842  6 Cl s          
    70     -0.791732  2 C  px                67      0.753562  2 C  px         
   284      0.661946  6 Cl s                343     -0.663287  7 Cl s          
   358      0.531882  7 Cl py               298     -0.526668  6 Cl px         
    71      0.449900  2 C  py                68     -0.442970  2 C  py         

 Vector   43  Occ=0.000000D+00  E= 1.068628D-01
              MO Center=  7.4D-01,  1.4D+00,  2.9D+00, r^2= 1.1D+01
   Bfn.  Coefficient  Atom+Function         Bfn.  Coefficient  Atom+Function  
  ----- ------------  ---------------      ----- ------------  ---------------
    60     10.017702  2 C  s                226     -5.367922  5 Cl s          
   285     -2.491660  6 Cl s                344     -2.374019  7 Cl s          
     4      1.723317  1 C  s                240      1.255072  5 Cl py         
    59     -1.159149  2 C  s                 71      0.903700  2 C  py         
   225      0.906330  5 Cl s                241      0.781518  5 Cl pz         

 Vector   44  Occ=0.000000D+00  E= 1.090067D-01
              MO Center= -3.3D-01, -4.8D-01,  2.7D+00, r^2= 1.4D+01
   Bfn.  Coefficient  Atom+Function         Bfn.  Coefficient  Atom+Function  
  ----- ------------  ---------------      ----- ------------  ---------------
    60     11.157571  2 C  s                344     -4.703862  7 Cl s          
   285     -4.630302  6 Cl s                 59     -2.258410  2 C  s          
     4      1.952482  1 C  s                  5     -1.205789  1 C  s          
   298     -1.180468  6 Cl px               226     -1.108171  5 Cl s          
    71     -1.043364  2 C  py                14      1.033195  1 C  pz         

 Vector   45  Occ=0.000000D+00  E= 1.302014D-01
              MO Center= -3.6D-01, -4.3D-01,  2.2D+00, r^2= 1.9D+01
   Bfn.  Coefficient  Atom+Function         Bfn.  Coefficient  Atom+Function  
  ----- ------------  ---------------      ----- ------------  ---------------
   285      4.234354  6 Cl s                344     -3.953337  7 Cl s          
    70      1.580466  2 C  px               298      1.306252  6 Cl px         
   358     -1.045060  7 Cl py                71     -0.886920  2 C  py         
   284     -0.651662  6 Cl s                357      0.639513  7 Cl px         
   300     -0.596880  6 Cl pz               359      0.595179  7 Cl pz         

 Vector   46  Occ=0.000000D+00  E= 1.377568D-01
              MO Center=  8.2D-02,  1.6D-01,  9.4D-02, r^2= 2.1D+01
   Bfn.  Coefficient  Atom+Function         Bfn.  Coefficient  Atom+Function  
  ----- ------------  ---------------      ----- ------------  ---------------
    60     20.647729  2 C  s                  5    -15.714513  1 C  s          
    59     -7.519493  2 C  s                 17     -4.714690  1 C  pz         
   226     -4.458460  5 Cl s                 72     -2.435036  2 C  pz         
    85     -2.356153  2 C  dxx               88     -2.087484  2 C  dyy        
   225      1.901559  5 Cl s                 35      1.648402  1 C  dzz        

 Vector   47  Occ=0.000000D+00  E= 1.392582D-01
              MO Center= -3.1D-01, -4.5D-01,  1.7D+00, r^2= 1.8D+01
   Bfn.  Coefficient  Atom+Function         Bfn.  Coefficient  Atom+Function  
  ----- ------------  ---------------      ----- ------------  ---------------
    60     13.951543  2 C  s                  5     -8.277177  1 C  s          
    59     -4.828567  2 C  s                344     -3.699144  7 Cl s          
   285     -3.518735  6 Cl s                 72     -2.792567  2 C  pz         
   226      2.669461  5 Cl s                 71     -1.971513  2 C  py         
    17     -1.778451  1 C  pz                88     -1.755556  2 C  dyy        

 Vector   48  Occ=0.000000D+00  E= 1.680782D-01
              MO Center=  4.3D-02,  1.1D-01,  1.7D+00, r^2= 1.5D+01
   Bfn.  Coefficient  Atom+Function         Bfn.  Coefficient  Atom+Function  
  ----- ------------  ---------------      ----- ------------  ---------------
    87     -2.504313  2 C  dxz               67      2.475190  2 C  px         
    86     -1.542595  2 C  dxy              284      1.547951  6 Cl s          
    88      1.513186  2 C  dyy               85     -1.503727  2 C  dxx        
   343     -1.380592  7 Cl s                 68     -1.353952  2 C  py         
    89      1.306922  2 C  dyz               12     -1.038993  1 C  px         

 Vector   49  Occ=0.000000D+00  E= 1.692298D-01
              MO Center=  3.4D-02,  6.4D-02, -5.5D-02, r^2= 2.1D+01
   Bfn.  Coefficient  Atom+Function         Bfn.  Coefficient  Atom+Function  
  ----- ------------  ---------------      ----- ------------  ---------------
    71      4.088634  2 C  py                16     -3.696346  1 C  py         
    60      3.587782  2 C  s                115      3.448842  3 O  s          
   226     -3.414224  5 Cl s                  5     -3.152746  1 C  s          
   170     -2.968438  4 O  s                 70      2.503330  2 C  px         
    15     -2.188084  1 C  px                17     -1.845565  1 C  pz         

 Vector   50  Occ=0.000000D+00  E= 1.714443D-01
              MO Center=  1.2D-01,  2.3D-01,  1.5D+00, r^2= 2.1D+01
   Bfn.  Coefficient  Atom+Function         Bfn.  Coefficient  Atom+Function  
  ----- ------------  ---------------      ----- ------------  ---------------
    60     23.422666  2 C  s                  5    -13.982710  1 C  s          
    72     -6.406189  2 C  pz                 4     -4.950981  1 C  s          
   285     -4.480425  6 Cl s                344     -4.279129  7 Cl s          
    59     -3.989523  2 C  s                115      3.876169  3 O  s          
   226     -3.777741  5 Cl s                 69     -3.313885  2 C  pz         

 Vector   51  Occ=0.000000D+00  E= 1.737714D-01
              MO Center= -5.6D-03, -5.2D-02,  5.2D-01, r^2= 1.9D+01
   Bfn.  Coefficient  Atom+Function         Bfn.  Coefficient  Atom+Function  
  ----- ------------  ---------------      ----- ------------  ---------------
    70      4.027287  2 C  px                15     -3.095773  1 C  px         
   344     -2.831145  7 Cl s                 71     -2.386988  2 C  py         
    60      2.157915  2 C  s                285      2.075932  6 Cl s          
    16      1.785260  1 C  py                87     -1.525256  2 C  dxz        
   343      1.423073  7 Cl s                  5     -1.358058  1 C  s          

 Vector   52  Occ=0.000000D+00  E= 1.798952D-01
              MO Center=  1.1D-01,  2.7D-01,  1.9D+00, r^2= 1.8D+01
   Bfn.  Coefficient  Atom+Function         Bfn.  Coefficient  Atom+Function  
  ----- ------------  ---------------      ----- ------------  ---------------
   170      4.282898  4 O  s                 71     -3.770663  2 C  py         
   226      3.764676  5 Cl s                 86      3.155257  2 C  dxy        
     5     -3.070538  1 C  s                115      3.010719  3 O  s          
    89     -2.969211  2 C  dyz               68      2.220609  2 C  py         
    70     -2.039652  2 C  px                33     -1.958446  1 C  dyy        

 Vector   53  Occ=0.000000D+00  E= 1.910885D-01
              MO Center= -2.2D-01, -2.5D-01,  1.0D+00, r^2= 2.1D+01
   Bfn.  Coefficient  Atom+Function         Bfn.  Coefficient  Atom+Function  
  ----- ------------  ---------------      ----- ------------  ---------------
    60     36.437194  2 C  s                  5    -29.100870  1 C  s          
    72     -9.462411  2 C  pz               170      6.453754  4 O  s          
    17     -5.565943  1 C  pz               285     -5.186732  6 Cl s          
   344     -4.958237  7 Cl s                226     -4.379138  5 Cl s          
   115      3.884540  3 O  s                  4     -3.246532  1 C  s          

 Vector   54  Occ=0.000000D+00  E= 2.051100D-01
              MO Center=  4.0D-01,  8.3D-01,  1.5D+00, r^2= 1.3D+01
   Bfn.  Coefficient  Atom+Function         Bfn.  Coefficient  Atom+Function  
  ----- ------------  ---------------      ----- ------------  ---------------
    70      2.786689  2 C  px               344     -2.365116  7 Cl s          
   285      2.245586  6 Cl s                239     -1.997548  5 Cl px         
    71     -1.665314  2 C  py                87      1.231511  2 C  dxz        
   240      1.194410  5 Cl py                15     -1.038039  1 C  px         
    67     -1.009634  2 C  px               284     -0.919841  6 Cl s          

 Vector   55  Occ=0.000000D+00  E= 2.083821D-01
              MO Center= -2.2D-02,  3.4D-02,  2.0D+00, r^2= 2.1D+01
   Bfn.  Coefficient  Atom+Function         Bfn.  Coefficient  Atom+Function  
  ----- ------------  ---------------      ----- ------------  ---------------
    16      3.698820  1 C  py                60     -3.083216  2 C  s          
   170      2.318268  4 O  s                 15      2.123081  1 C  px         
    72      1.992025  2 C  pz               241      1.937740  5 Cl pz         
   359     -1.865703  7 Cl pz               300     -1.771358  6 Cl pz         
    68     -1.716506  2 C  py                89     -1.381522  2 C  dyz        

 Vector   56  Occ=0.000000D+00  E= 2.087958D-01
              MO Center= -4.4D-01, -6.7D-01,  1.8D+00, r^2= 1.9D+01
   Bfn.  Coefficient  Atom+Function         Bfn.  Coefficient  Atom+Function  
  ----- ------------  ---------------      ----- ------------  ---------------
    15      2.486929  1 C  px               300     -1.742062  6 Cl pz         
    67     -1.720705  2 C  px               357     -1.697208  7 Cl px         
   359      1.596540  7 Cl pz               299      1.418704  6 Cl py         
    16     -1.366331  1 C  py               284     -1.023054  6 Cl s          
   343      0.966657  7 Cl s                 68      0.940216  2 C  py         

 Vector   57  Occ=0.000000D+00  E= 2.127954D-01
              MO Center= -4.9D-01, -7.1D-01,  1.4D+00, r^2= 1.7D+01
   Bfn.  Coefficient  Atom+Function         Bfn.  Coefficient  Atom+Function  
  ----- ------------  ---------------      ----- ------------  ---------------
    70      2.216936  2 C  px               344     -2.005996  7 Cl s          
   285      1.881976  6 Cl s                299      1.618476  6 Cl py         
    15     -1.528927  1 C  px               358     -1.297796  7 Cl py         
    71     -1.290724  2 C  py               357     -1.124843  7 Cl px         
   300      0.980960  6 Cl pz               239      0.936272  5 Cl px         

 Vector   58  Occ=0.000000D+00  E= 2.272913D-01
              MO Center=  4.3D-02,  1.8D-01,  2.1D+00, r^2= 1.6D+01
   Bfn.  Coefficient  Atom+Function         Bfn.  Coefficient  Atom+Function  
  ----- ------------  ---------------      ----- ------------  ---------------
    60    -21.007500  2 C  s                  5     20.347230  1 C  s          
    59     15.056780  2 C  s                 72     13.920928  2 C  pz         
     4    -10.084784  1 C  s                 90      4.635634  2 C  dzz        
    14     -4.528348  1 C  pz                85      4.475043  2 C  dxx        
    88      3.949591  2 C  dyy               69     -3.889953  2 C  pz         

 Vector   59  Occ=0.000000D+00  E= 2.336052D-01
              MO Center=  2.3D-01,  4.7D-01,  5.5D-01, r^2= 1.8D+01
   Bfn.  Coefficient  Atom+Function         Bfn.  Coefficient  Atom+Function  
  ----- ------------  ---------------      ----- ------------  ---------------
     4     13.734378  1 C  s                115     -8.090072  3 O  s          
    59     -6.613638  2 C  s                 35      6.014752  1 C  dzz        
   170     -5.203516  4 O  s                 69      4.526244  2 C  pz         
    14      4.487051  1 C  pz                71      4.357081  2 C  py         
    68      4.317253  2 C  py                30      3.930886  1 C  dxx        

 Vector   60  Occ=0.000000D+00  E= 2.453801D-01
              MO Center=  1.3D-01,  1.3D-01,  9.8D-01, r^2= 1.8D+01
   Bfn.  Coefficient  Atom+Function         Bfn.  Coefficient  Atom+Function  
  ----- ------------  ---------------      ----- ------------  ---------------
    70     14.465447  2 C  px               285      5.296790  6 Cl s          
    67      4.911723  2 C  px                15     -4.869508  1 C  px         
     5      4.497111  1 C  s                 60     -4.440996  2 C  s          
   239     -3.402937  5 Cl px               344     -3.063783  7 Cl s          
   357     -3.070789  7 Cl px                 4     -2.979267  1 C  s          

 Vector   61  Occ=0.000000D+00  E= 2.459884D-01
              MO Center= -1.8D-01, -1.3D-01,  1.1D+00, r^2= 1.9D+01
   Bfn.  Coefficient  Atom+Function         Bfn.  Coefficient  Atom+Function  
  ----- ------------  ---------------      ----- ------------  ---------------
     5     15.557725  1 C  s                 60    -14.756389  2 C  s          
    71     11.418935  2 C  py                59      7.002041  2 C  s          
     4     -6.349441  1 C  s                 72     -6.024043  2 C  pz         
    17      4.894054  1 C  pz                16     -4.358273  1 C  py         
    69     -3.922019  2 C  pz               344      3.857033  7 Cl s          

 Vector   62  Occ=0.000000D+00  E= 2.478996D-01
              MO Center= -1.6D-02, -4.8D-02,  7.4D-01, r^2= 2.0D+01
   Bfn.  Coefficient  Atom+Function         Bfn.  Coefficient  Atom+Function  
  ----- ------------  ---------------      ----- ------------  ---------------
     5     15.146822  1 C  s                 60    -12.500648  2 C  s          
    71    -11.409931  2 C  py               170     -9.203901  4 O  s          
     4      7.127012  1 C  s                115     -6.926995  3 O  s          
    17      5.066111  1 C  pz               226      4.965277  5 Cl s          
    70     -4.834051  2 C  px                72     -4.352016  2 C  pz         

 Vector   63  Occ=0.000000D+00  E= 2.559985D-01
              MO Center= -2.9D-01, -4.0D-01,  7.1D-01, r^2= 1.6D+01
   Bfn.  Coefficient  Atom+Function         Bfn.  Coefficient  Atom+Function  
  ----- ------------  ---------------      ----- ------------  ---------------
   344      5.606674  7 Cl s                285     -4.896675  6 Cl s          
   343     -4.766315  7 Cl s                284      4.631314  6 Cl s          
    67      4.605797  2 C  px                68     -2.646182  2 C  py         
    86     -2.339267  2 C  dxy               88      2.266857  2 C  dyy        
    85     -2.196352  2 C  dxx              295      2.136866  6 Cl px         

 Vector   64  Occ=0.000000D+00  E= 2.767039D-01
              MO Center=  3.4D-01,  6.2D-01,  2.1D+00, r^2= 1.5D+01
   Bfn.  Coefficient  Atom+Function         Bfn.  Coefficient  Atom+Function  
  ----- ------------  ---------------      ----- ------------  ---------------
    60     13.540081  2 C  s                226    -12.188025  5 Cl s          
    72      8.869570  2 C  pz                 4      8.153744  1 C  s          
     5      7.832447  1 C  s                344     -6.310949  7 Cl s          
    59     -6.197133  2 C  s                285     -5.819324  6 Cl s          
   170     -4.985941  4 O  s                 69      2.976087  2 C  pz         

 Vector   65  Occ=0.000000D+00  E= 2.905191D-01
              MO Center=  1.7D-02,  1.2D-01,  1.1D+00, r^2= 1.7D+01
   Bfn.  Coefficient  Atom+Function         Bfn.  Coefficient  Atom+Function  
  ----- ------------  ---------------      ----- ------------  ---------------
    60     25.455269  2 C  s                  5    -21.019627  1 C  s          
   226    -13.011561  5 Cl s                 72     -7.658237  2 C  pz         
    59     -7.299480  2 C  s                  4      6.592449  1 C  s          
    71      6.140429  2 C  py                70      4.199669  2 C  px         
   225      4.088579  5 Cl s                 35      4.037170  1 C  dzz        

 Vector   66  Occ=0.000000D+00  E= 2.962737D-01
              MO Center= -8.9D-01, -1.7D-01,  1.4D+00, r^2= 1.9D+01
   Bfn.  Coefficient  Atom+Function         Bfn.  Coefficient  Atom+Function  
  ----- ------------  ---------------      ----- ------------  ---------------
   285     17.000799  6 Cl s                 60    -14.651738  2 C  s          
    70      9.512210  2 C  px               344     -8.823382  7 Cl s          
     5      6.797437  1 C  s                284     -4.699130  6 Cl s          
    71     -4.190510  2 C  py                59      3.010425  2 C  s          
    72      2.806045  2 C  pz               343      1.977941  7 Cl s          

 Vector   67  Occ=0.000000D+00  E= 2.965674D-01
              MO Center=  2.8D-02, -1.1D+00,  1.8D+00, r^2= 1.5D+01
   Bfn.  Coefficient  Atom+Function         Bfn.  Coefficient  Atom+Function  
  ----- ------------  ---------------      ----- ------------  ---------------
    60     53.704559  2 C  s                  5    -25.878133  1 C  s          
   344    -19.405801  7 Cl s                285    -13.133291  6 Cl s          
    59    -11.296654  2 C  s                 72     -9.844271  2 C  pz         
    71     -7.658883  2 C  py               343      6.137217  7 Cl s          
   284      4.488768  6 Cl s                 85     -4.156703  2 C  dxx        

 Vector   68  Occ=0.000000D+00  E= 3.052754D-01
              MO Center=  2.2D-01,  4.1D-01,  6.9D-01, r^2= 1.7D+01
   Bfn.  Coefficient  Atom+Function         Bfn.  Coefficient  Atom+Function  
  ----- ------------  ---------------      ----- ------------  ---------------
   226     11.997836  5 Cl s                 71     -9.790856  2 C  py         
   115     -7.469674  3 O  s                 34     -6.883777  1 C  dyz        
    70     -5.904471  2 C  px               285     -4.203024  6 Cl s          
    32     -3.935305  1 C  dxz               68      3.790244  2 C  py         
     4      3.768665  1 C  s                344     -3.764147  7 Cl s          

 Vector   69  Occ=0.000000D+00  E= 3.138152D-01
              MO Center=  1.6D-01,  2.2D-01, -9.9D-01, r^2= 1.4D+01
   Bfn.  Coefficient  Atom+Function         Bfn.  Coefficient  Atom+Function  
  ----- ------------  ---------------      ----- ------------  ---------------
    60     28.969101  2 C  s                  5    -20.210207  1 C  s          
    59    -11.924906  2 C  s                 72     -8.576541  2 C  pz         
     4     -8.063528  1 C  s                 17     -6.768460  1 C  pz         
   170      5.508963  4 O  s                225      4.739808  5 Cl s          
   127      4.246020  3 O  pz               226     -4.129271  5 Cl s          

 Vector   70  Occ=0.000000D+00  E= 3.258733D-01
              MO Center=  3.0D-02,  4.7D-02,  1.1D-01, r^2= 1.3D+01
   Bfn.  Coefficient  Atom+Function         Bfn.  Coefficient  Atom+Function  
  ----- ------------  ---------------      ----- ------------  ---------------
    67      4.204518  2 C  px                15      3.116689  1 C  px         
   180     -2.641327  4 O  px                68     -2.469278  2 C  py         
   284      2.176452  6 Cl s                343     -2.138071  7 Cl s          
    16     -2.035720  1 C  py               125     -1.881442  3 O  px         
   181      1.774863  4 O  py               295      1.615691  6 Cl px         

 Vector   71  Occ=0.000000D+00  E= 3.321364D-01
              MO Center= -2.2D-01, -4.4D-01, -5.2D-01, r^2= 1.7D+01
   Bfn.  Coefficient  Atom+Function         Bfn.  Coefficient  Atom+Function  
  ----- ------------  ---------------      ----- ------------  ---------------
    60     43.154303  2 C  s                  5    -16.760677  1 C  s          
    59    -11.551795  2 C  s                226    -10.717565  5 Cl s          
    16     -9.161076  1 C  py                72     -9.002019  2 C  pz         
   285     -8.542482  6 Cl s                344     -7.652672  7 Cl s          
   225      7.005075  5 Cl s                  4      5.441672  1 C  s          

 Vector   72  Occ=0.000000D+00  E= 3.428480D-01
              MO Center= -2.1D-01, -5.4D-01,  8.4D-01, r^2= 1.3D+01
   Bfn.  Coefficient  Atom+Function         Bfn.  Coefficient  Atom+Function  
  ----- ------------  ---------------      ----- ------------  ---------------
    60     18.435672  2 C  s                170     13.008041  4 O  s          
     5    -12.797414  1 C  s                 14      8.779767  1 C  pz         
    69      8.235537  2 C  pz               226     -6.347182  5 Cl s          
    68      5.157580  2 C  py               115      4.611291  3 O  s          
    33     -4.445039  1 C  dyy               34     -4.434029  1 C  dyz        

 Vector   73  Occ=0.000000D+00  E= 3.480671D-01
              MO Center= -3.7D-02,  3.8D-01,  1.3D+00, r^2= 1.2D+01
   Bfn.  Coefficient  Atom+Function         Bfn.  Coefficient  Atom+Function  
  ----- ------------  ---------------      ----- ------------  ---------------
   285      4.984034  6 Cl s                344     -4.192323  7 Cl s          
    67      3.803102  2 C  px                68     -3.544442  2 C  py         
   355     -3.411734  7 Cl py                70      3.288889  2 C  px         
    15     -3.076188  1 C  px               343     -2.750120  7 Cl s          
   295      2.688336  6 Cl px                87      2.307645  2 C  dxz        

 Vector   74  Occ=0.000000D+00  E= 3.568571D-01
              MO Center=  3.1D-01,  2.3D-01,  1.6D+00, r^2= 1.1D+01
   Bfn.  Coefficient  Atom+Function         Bfn.  Coefficient  Atom+Function  
  ----- ------------  ---------------      ----- ------------  ---------------
    60     23.591359  2 C  s                 69     -9.233067  2 C  pz         
    59     -8.991760  2 C  s                  4     -8.432936  1 C  s          
    72     -8.020254  2 C  pz                 5     -7.058541  1 C  s          
   284      6.958876  6 Cl s                 71      6.068746  2 C  py         
   226     -6.036093  5 Cl s                295      5.697565  6 Cl px         

 Vector   75  Occ=0.000000D+00  E= 3.599217D-01
              MO Center= -1.6D-01,  2.4D-01,  1.3D+00, r^2= 1.1D+01
   Bfn.  Coefficient  Atom+Function         Bfn.  Coefficient  Atom+Function  
  ----- ------------  ---------------      ----- ------------  ---------------
    67     -9.135131  2 C  px               115     -8.948871  3 O  s          
    60      8.698132  2 C  s                 70     -7.865403  2 C  px         
    59     -6.063262  2 C  s                343      5.466734  7 Cl s          
    87     -4.382461  2 C  dxz              285     -4.384714  6 Cl s          
     4      4.177509  1 C  s                355      4.167420  7 Cl py         

 Vector   76  Occ=0.000000D+00  E= 3.600387D-01
              MO Center=  1.4D-01,  9.1D-02,  1.1D+00, r^2= 1.1D+01
   Bfn.  Coefficient  Atom+Function         Bfn.  Coefficient  Atom+Function  
  ----- ------------  ---------------      ----- ------------  ---------------
   115     10.204215  3 O  s                 60     -8.866959  2 C  s          
    71      7.983528  2 C  py                68      7.791975  2 C  py         
     4     -6.340459  1 C  s                 59      6.178144  2 C  s          
    89      4.872138  2 C  dyz              344      4.887669  7 Cl s          
    67     -4.827026  2 C  px               225     -4.825599  5 Cl s          

 Vector   77  Occ=0.000000D+00  E= 3.751780D-01
              MO Center=  1.3D-01,  2.9D-01,  1.2D+00, r^2= 1.3D+01
   Bfn.  Coefficient  Atom+Function         Bfn.  Coefficient  Atom+Function  
  ----- ------------  ---------------      ----- ------------  ---------------
    60     37.974241  2 C  s                  5    -28.577962  1 C  s          
   115     12.424060  3 O  s                226     -6.708949  5 Cl s          
   285     -6.660878  6 Cl s                344     -6.626018  7 Cl s          
     4     -5.321610  1 C  s                170      5.235908  4 O  s          
    71     -5.159924  2 C  py                70     -3.111977  2 C  px         

 Vector   78  Occ=0.000000D+00  E= 3.864243D-01
              MO Center= -1.2D-01, -1.9D-01,  5.7D-01, r^2= 1.2D+01
   Bfn.  Coefficient  Atom+Function         Bfn.  Coefficient  Atom+Function  
  ----- ------------  ---------------      ----- ------------  ---------------
    60     27.789957  2 C  s                  5    -24.061209  1 C  s          
   170      9.330552  4 O  s                 69      6.763908  2 C  pz         
    59     -6.356533  2 C  s                 14      5.511543  1 C  pz         
   344     -5.298362  7 Cl s                285     -5.199831  6 Cl s          
    17     -4.899101  1 C  pz                 4      4.767604  1 C  s          

 Vector   79  Occ=0.000000D+00  E= 4.028350D-01
              MO Center= -1.9D-01, -3.3D-01,  1.3D+00, r^2= 1.0D+01
   Bfn.  Coefficient  Atom+Function         Bfn.  Coefficient  Atom+Function  
  ----- ------------  ---------------      ----- ------------  ---------------
    87      9.933172  2 C  dxz               89     -5.817896  2 C  dyz        
    12      4.210403  1 C  px                32      3.465083  1 C  dxz        
    86      3.204936  2 C  dxy               88     -2.856228  2 C  dyy        
   236     -2.539885  5 Cl px                13     -2.502475  1 C  py         
   355     -2.351675  7 Cl py                85      2.214158  2 C  dxx        

 Vector   80  Occ=0.000000D+00  E= 4.077748D-01
              MO Center=  1.4D-01,  3.3D-01,  1.8D+00, r^2= 1.1D+01
   Bfn.  Coefficient  Atom+Function         Bfn.  Coefficient  Atom+Function  
  ----- ------------  ---------------      ----- ------------  ---------------
    59     13.205265  2 C  s                  4    -10.960749  1 C  s          
   170      7.817382  4 O  s                 68     -7.137038  2 C  py         
    86     -5.791741  2 C  dxy               85      4.566858  2 C  dxx        
   343     -4.248730  7 Cl s                 67     -4.210147  2 C  px         
   284     -4.226932  6 Cl s                 60      4.034945  2 C  s          

 Vector   81  Occ=0.000000D+00  E= 4.102872D-01
              MO Center= -3.1D-01, -4.5D-01,  1.9D+00, r^2= 8.3D+00
   Bfn.  Coefficient  Atom+Function         Bfn.  Coefficient  Atom+Function  
  ----- ------------  ---------------      ----- ------------  ---------------
    70      3.743989  2 C  px                71     -2.469059  2 C  py         
    86     -1.397805  2 C  dxy               68     -1.326444  2 C  py         
    67      1.262386  2 C  px               239     -1.198115  5 Cl px         
    13      1.162220  1 C  py               357     -1.157483  7 Cl px         
    15     -1.071125  1 C  px                12     -1.032850  1 C  px         

 Vector   82  Occ=0.000000D+00  E= 4.231691D-01
              MO Center= -3.5D-01, -6.8D-01,  1.8D+00, r^2= 1.1D+01
   Bfn.  Coefficient  Atom+Function         Bfn.  Coefficient  Atom+Function  
  ----- ------------  ---------------      ----- ------------  ---------------
     4     15.406650  1 C  s                 59    -13.364131  2 C  s          
   170    -11.510518  4 O  s                 89      8.861548  2 C  dyz        
    33      6.328449  1 C  dyy               86     -6.278675  2 C  dxy        
    60      6.145197  2 C  s                115     -5.691817  3 O  s          
    35      5.273737  1 C  dzz               69      5.206685  2 C  pz         

 Vector   83  Occ=0.000000D+00  E= 4.265157D-01
              MO Center= -1.7D-01,  1.0D-01,  2.0D+00, r^2= 9.8D+00
   Bfn.  Coefficient  Atom+Function         Bfn.  Coefficient  Atom+Function  
  ----- ------------  ---------------      ----- ------------  ---------------
    87      3.157239  2 C  dxz              285      2.667763  6 Cl s          
    88     -2.379819  2 C  dyy                4      2.225921  1 C  s          
   170     -2.115777  4 O  s                343      2.036297  7 Cl s          
   344     -1.997157  7 Cl s                 67     -1.984372  2 C  px         
    59     -1.818338  2 C  s                284     -1.576901  6 Cl s          

 Vector   84  Occ=0.000000D+00  E= 4.335149D-01
              MO Center=  3.0D-02,  2.1D-01,  2.0D+00, r^2= 1.1D+01
   Bfn.  Coefficient  Atom+Function         Bfn.  Coefficient  Atom+Function  
  ----- ------------  ---------------      ----- ------------  ---------------
    59     29.824196  2 C  s                  4    -20.868336  1 C  s          
    60    -20.117461  2 C  s                  5     14.660621  1 C  s          
    14    -12.929470  1 C  pz                69    -10.243853  2 C  pz         
    90      8.877142  2 C  dzz               85      7.705921  2 C  dxx        
    88      5.961243  2 C  dyy              170     -4.868545  4 O  s          

 Vector   85  Occ=0.000000D+00  E= 4.551649D-01
              MO Center=  1.1D-01,  5.3D-01,  1.4D+00, r^2= 1.1D+01
   Bfn.  Coefficient  Atom+Function         Bfn.  Coefficient  Atom+Function  
  ----- ------------  ---------------      ----- ------------  ---------------
    60    -17.480282  2 C  s                  5     17.118184  1 C  s          
   115    -13.478920  3 O  s                170     -8.957667  4 O  s          
    59      7.147213  2 C  s                 69     -6.249123  2 C  pz         
    14     -5.053436  1 C  pz                68      4.706831  2 C  py         
    90      4.394422  2 C  dzz               33      4.246289  1 C  dyy        

 Vector   86  Occ=0.000000D+00  E= 4.563845D-01
              MO Center=  5.0D-01,  6.7D-01,  1.9D+00, r^2= 1.1D+01
   Bfn.  Coefficient  Atom+Function         Bfn.  Coefficient  Atom+Function  
  ----- ------------  ---------------      ----- ------------  ---------------
    67      8.641777  2 C  px                60     -8.343452  2 C  s          
     5      8.169597  1 C  s                115     -6.626971  3 O  s          
   284      5.292266  6 Cl s                 87     -5.105740  2 C  dxz        
    88      4.833718  2 C  dyy              170     -4.434130  4 O  s          
    89      4.104759  2 C  dyz               85     -3.709198  2 C  dxx        

 Vector   87  Occ=0.000000D+00  E= 4.583168D-01
              MO Center= -3.9D-01, -5.6D-01,  2.0D+00, r^2= 1.1D+01
   Bfn.  Coefficient  Atom+Function         Bfn.  Coefficient  Atom+Function  
  ----- ------------  ---------------      ----- ------------  ---------------
    67      4.038500  2 C  px               284      2.669857  6 Cl s          
   343     -2.572699  7 Cl s                 68     -2.385106  2 C  py         
   355     -1.766910  7 Cl py                86     -1.683666  2 C  dxy        
    88      1.636274  2 C  dyy               85     -1.626328  2 C  dxx        
   295      1.576221  6 Cl px               299     -1.517212  6 Cl py         

 Vector   88  Occ=0.000000D+00  E= 4.779365D-01
              MO Center=  2.8D-01,  5.1D-01,  1.4D+00, r^2= 1.1D+01
   Bfn.  Coefficient  Atom+Function         Bfn.  Coefficient  Atom+Function  
[...]
   115     -6.571712  3 O  s                169     -6.476072  4 O  s          
   170     -5.700413  4 O  s                123      4.346924  3 O  py         

 Vector  393  Occ=0.000000D+00  E= 1.690167D+01
              MO Center= -3.2D-04, -2.8D-02, -6.0D-01, r^2= 2.0D+00
   Bfn.  Coefficient  Atom+Function         Bfn.  Coefficient  Atom+Function  
  ----- ------------  ---------------      ----- ------------  ---------------
   114     14.313190  3 O  s                169    -13.215461  4 O  s          
   112      7.418937  3 O  s                167     -7.404812  4 O  s          
   178     -5.034405  4 O  py                13     -4.888108  1 C  py         
   179     -4.427575  4 O  pz                60     -4.280065  2 C  s          
    10     -4.173411  1 C  py               124      3.763220  3 O  pz         

 Vector  394  Occ=0.000000D+00  E= 1.877297D+01
              MO Center= -3.4D-01, -5.9D-01,  4.5D-02, r^2= 3.5D+00
   Bfn.  Coefficient  Atom+Function         Bfn.  Coefficient  Atom+Function  
  ----- ------------  ---------------      ----- ------------  ---------------
     4     32.887405  1 C  s                 60    -20.373567  2 C  s          
    13    -12.713769  1 C  py                57     10.837564  2 C  s          
     5     10.286662  1 C  s                178    -10.091501  4 O  py         
    31      9.910411  1 C  dxy              195     -9.002035  4 O  dxx        
   198     -8.951495  4 O  dyy              175     -8.769515  4 O  py         

 Vector  395  Occ=0.000000D+00  E= 1.935553D+01
              MO Center=  4.0D-01,  6.9D-01, -3.5D-01, r^2= 2.5D+00
   Bfn.  Coefficient  Atom+Function         Bfn.  Coefficient  Atom+Function  
  ----- ------------  ---------------      ----- ------------  ---------------
     4     33.733854  1 C  s                 59    -27.259918  2 C  s          
    13     17.300167  1 C  py                60     14.621450  2 C  s          
   123     13.344044  3 O  py               114    -13.094231  3 O  s          
   124    -11.854840  3 O  pz                50    -10.771964  1 C  fxyz       
    31     10.444716  1 C  dxy              120     10.463041  3 O  py         

 Vector  396  Occ=0.000000D+00  E= 2.448560D+01
              MO Center= -1.3D-01, -1.7D-01,  1.0D+00, r^2= 3.3D+00
   Bfn.  Coefficient  Atom+Function         Bfn.  Coefficient  Atom+Function  
  ----- ------------  ---------------      ----- ------------  ---------------
    59     66.988985  2 C  s                 57    -25.432416  2 C  s          
    50    -13.250077  1 C  fxyz              14    -13.003120  1 C  pz         
    53    -12.774763  1 C  fyyz              56    -12.469408  2 C  s          
    69    -11.412798  2 C  pz                13    -10.282388  1 C  py         
   284    -10.089969  6 Cl s                104      9.900966  2 C  fxyy       

 Vector  397  Occ=0.000000D+00  E= 2.895990D+01
              MO Center=  5.7D-03,  3.3D-03, -6.0D-02, r^2= 1.6D+00
   Bfn.  Coefficient  Atom+Function         Bfn.  Coefficient  Atom+Function  
  ----- ------------  ---------------      ----- ------------  ---------------
     2     30.541651  1 C  s                 59     23.809601  2 C  s          
   114    -20.691011  3 O  s                169    -19.733335  4 O  s          
    53    -15.529424  1 C  fyyz               1     15.059823  1 C  s          
    25     13.476824  1 C  dxy               50    -10.999725  1 C  fxyz       
    33    -10.404952  1 C  dyy              170     10.059012  4 O  s          


 center of mass
 --------------
 x =  -0.10663892 y =  -0.03409025 z =   2.71098566

 moments of inertia (a.u.)
 ------------------
        1440.329492639602         -59.458986746046          -4.025330810963
         -59.458986746046        1367.266066650957         -16.231239633269
          -4.025330810963         -16.231239633269        1221.863455375068

     Multipole analysis of the density
     ---------------------------------

     L   x y z        total         alpha         beta         nuclear
     -   - - -        -----         -----         ----         -------
     0   0 0 0     -1.000000    -40.000000    -40.000000     79.000000

     1   1 0 0      0.038032      4.191368      4.191368     -8.344703
     1   0 1 0      0.016540      1.343620      1.343620     -2.670700
     1   0 0 1     -0.752387   -106.384329   -106.384329    212.016271

     2   2 0 0    -49.791963   -165.217931   -165.217931    280.643898
     2   1 1 0     -2.410312    -16.251112    -16.251112     30.091911
     2   1 0 1      0.167860     10.443109     10.443109    -20.718358
     2   0 2 0    -52.697715   -184.572829   -184.572829    316.447944
     2   0 1 1     -0.161131     -0.406651     -0.406651      0.652170
     2   0 0 2    -57.666872   -509.971364   -509.971364    962.275857

 Line search: 
     step= 1.00 grad=-4.6D-07 hess= 2.0D-07 energy=  -1606.699040 mode=accept  
 new step= 1.00                   predicted energy=  -1606.699040

          --------
          Step   9
          --------


                         Geometry "geometry" -> "geometry"
                         ---------------------------------

 Output coordinates in angstroms (scale by  1.889725989 to convert to a.u.)

  No.       Tag          Charge          X              Y              Z
 ---- ---------------- ---------- -------------- -------------- --------------
    1 C                    6.0000     0.00452756     0.00338203    -0.10160101
    2 C                    6.0000    -0.04611664     0.00094233     1.54601470
    3 O                    8.0000     0.57581970     0.99153849    -0.58736281
    4 O                    8.0000    -0.55319814    -1.00462730    -0.56680626
    5 Cl                  17.0000     0.77484059     1.41934068     2.32871824
    6 Cl                  17.0000    -1.77833909     0.00563468     2.10892091
    7 Cl                  17.0000     0.74777702    -1.50347590     2.19536423

      Atomic Mass 
      ----------- 

      C                 12.000000
      O                 15.994910
      Cl                34.968850


 Effective nuclear repulsion energy (a.u.)     517.6000501611

            Nuclear Dipole moment (a.u.) 
            ----------------------------
        X                 Y               Z
 ---------------- ---------------- ----------------
    -8.3447033794    -2.6706998391   212.0162710924


                                 NWChem DFT Module
                                 -----------------




 Summary of "ao basis" -> "ao basis" (cartesian)
 ------------------------------------------------------------------------------
       Tag                 Description            Shells   Functions and Types
 ---------------- ------------------------------  ------  ---------------------
 C                        aug-cc-pVTZ               14       55   5s4p3d2f
 O                        aug-cc-pVTZ               14       55   5s4p3d2f
 Cl                       aug-cc-pVTZ               16       59   6s5p3d2f



  The DFT is already converged 

         Total DFT energy =  -1606.699039904355


            General Information
            -------------------
          SCF calculation type: DFT
          Wavefunction type:  closed shell.
          No. of atoms     :     7
          No. of electrons :    80
           Alpha electrons :    40
            Beta electrons :    40
          Charge           :    -1
          Spin multiplicity:     1
          Use of symmetry is: off; symmetry adaption is: off
          Maximum number of iterations: 200
          AO basis - number of functions:   397
                     number of shells:   104
          Convergence on energy requested:  1.00D-06
          Convergence on density requested:  1.00D-05
          Convergence on gradient requested:  5.00D-04

              XC Information
              --------------
          PerdewBurkeErnzerhof Exchange Functional  1.000          
            Perdew 1991 LDA Correlation Functional  1.000 local    
           PerdewBurkeErnz. Correlation Functional  1.000 non-local

             Grid Information
             ----------------
          Grid used for XC integration:  medium    
          Radial quadrature: Mura-Knowles        
          Angular quadrature: Lebedev. 
          Tag              B.-S. Rad. Rad. Pts. Rad. Cut. Ang. Pts.
          ---              ---------- --------- --------- ---------
          C                   0.70       49          13.0       434
          O                   0.60       49          14.0       434
          Cl                  1.00       88          13.0       590
          Grid pruning is: on 
          Number of quadrature shells:   460
          Spatial weights used:  Erf1

          Convergence Information
          -----------------------
          Convergence aids based upon iterative change in 
          total energy or number of iterations. 
          Levelshifting, if invoked, occurs when the 
          HOMO/LUMO gap drops below (HL_TOL):  1.00D-02
          DIIS, if invoked, will attempt to extrapolate 
          using up to (NFOCK): 10 stored Fock matrices.

                    Damping(40%)  Levelshifting(0.0)       DIIS
                  --------------- ------------------- ---------------
          dE  on:    start            ASAP                start   
          dE off:  200 iters        200 iters           200 iters 


      Screening Tolerance Information
      -------------------------------
          Density screening/tol_rho:  1.00D-10
          AO Gaussian exp screening on grid/accAOfunc:  14
          CD Gaussian exp screening on grid/accCDfunc:  20
          XC Gaussian exp screening on grid/accXCfunc:  20
          Schwarz screening/accCoul:  1.00D-08



                            NWChem DFT Gradient Module
                            --------------------------



  charge          =  -1.00
  wavefunction    = closed shell



                         DFT ENERGY GRADIENTS

    atom               coordinates                        gradient
                 x          y          z           x          y          z
   1 C       0.008556   0.006391  -0.191998   -0.000051  -0.000064  -0.000017
   2 C      -0.087148   0.001781   2.921544   -0.000020  -0.000084   0.000041
   3 O       1.088141   1.873736  -1.109955   -0.000026  -0.000020  -0.000042
   4 O      -1.045393  -1.898470  -1.071109    0.000031   0.000054   0.000035
   5 Cl      1.464236   2.682165   4.400639   -0.000023  -0.000013   0.000076
   6 Cl     -3.360574   0.010648   3.985283    0.000143   0.000023  -0.000060
   7 Cl      1.413094  -2.841157   4.148637   -0.000054   0.000103  -0.000033

                 ----------------------------------------
                 |  Time  |  1-e(secs)   |  2-e(secs)   |
                 ----------------------------------------
                 |  CPU   |       0.01   |      37.26   |
                 ----------------------------------------
                 |  WALL  |       0.01   |      37.46   |
                 ----------------------------------------

  Step       Energy      Delta E   Gmax     Grms     Xrms     Xmax   Walltime
  ---- ---------------- -------- -------- -------- -------- -------- --------
@    9   -1606.69903990 -2.6D-07  0.00014  0.00006  0.00033  0.00093   2070.7
                                     ok       ok       ok       ok  


      ----------------------
      Optimization converged
      ----------------------


  Step       Energy      Delta E   Gmax     Grms     Xrms     Xmax   Walltime
  ---- ---------------- -------- -------- -------- -------- -------- --------
@    9   -1606.69903990 -2.6D-07  0.00014  0.00006  0.00033  0.00093   2070.7
                                     ok       ok       ok       ok  



                         Geometry "geometry" -> "geometry"
                         ---------------------------------

 Output coordinates in angstroms (scale by  1.889725989 to convert to a.u.)

  No.       Tag          Charge          X              Y              Z
 ---- ---------------- ---------- -------------- -------------- --------------
    1 C                    6.0000     0.00452756     0.00338203    -0.10160101
    2 C                    6.0000    -0.04611664     0.00094233     1.54601470
    3 O                    8.0000     0.57581970     0.99153849    -0.58736281
    4 O                    8.0000    -0.55319814    -1.00462730    -0.56680626
    5 Cl                  17.0000     0.77484059     1.41934068     2.32871824
    6 Cl                  17.0000    -1.77833909     0.00563468     2.10892091
    7 Cl                  17.0000     0.74777702    -1.50347590     2.19536423

      Atomic Mass 
      ----------- 

      C                 12.000000
      O                 15.994910
      Cl                34.968850


 Effective nuclear repulsion energy (a.u.)     517.6000501611

            Nuclear Dipole moment (a.u.) 
            ----------------------------
        X                 Y               Z
 ---------------- ---------------- ----------------
    -8.3447033794    -2.6706998391   212.0162710924

 ==============================================================================
                                internuclear distances
 ------------------------------------------------------------------------------
       center one      |      center two      | atomic units |  angstroms
 ------------------------------------------------------------------------------
    2 C                |   1 C                |     3.11502  |     1.64840
    3 O                |   1 C                |     2.34417  |     1.24048
    4 O                |   1 C                |     2.34779  |     1.24240
    5 Cl               |   2 C                |     3.43205  |     1.81616
    6 Cl               |   2 C                |     3.44194  |     1.82140
    7 Cl               |   2 C                |     3.44075  |     1.82077
 ------------------------------------------------------------------------------
                         number of included internuclear distances:          6
 ==============================================================================



 ==============================================================================
                                 internuclear angles
 ------------------------------------------------------------------------------
        center 1       |       center 2       |       center 3       |  degrees
 ------------------------------------------------------------------------------
    2 C                |   1 C                |   3 O                |   114.00
    2 C                |   1 C                |   4 O                |   111.06
    3 O                |   1 C                |   4 O                |   134.94
    1 C                |   2 C                |   5 Cl               |   114.56
    1 C                |   2 C                |   6 Cl               |   109.76
    1 C                |   2 C                |   7 Cl               |   110.14
    5 Cl               |   2 C                |   6 Cl               |   107.14
    5 Cl               |   2 C                |   7 Cl               |   107.13
    6 Cl               |   2 C                |   7 Cl               |   107.85
 ------------------------------------------------------------------------------
                            number of included internuclear angles:          9
 ==============================================================================




 Task  times  cpu:     2039.5s     wall:     2070.1s


                                NWChem Input Module
                                -------------------


 Summary of allocated global arrays
-----------------------------------
  No active global arrays


MA_summarize_allocated_blocks: starting scan ...
MA_summarize_allocated_blocks: scan completed: 0 heap blocks, 0 stack blocks
MA usage statistics:

	allocation statistics:
					      heap	     stack
					      ----	     -----
	current number of blocks	         0	         0
	maximum number of blocks	        24	        53
	current total bytes		         0	         0
	maximum total bytes		 269304248	  80122168
	maximum total K-bytes		    269305	     80123
	maximum total M-bytes		       270	        81


                                     CITATION
                                     --------
                Please cite the following reference when publishing
                           results obtained with NWChem:

          E. Apra, E. J. Bylaska, W. A. de Jong, N. Govind, K. Kowalski,
       T. P. Straatsma, M. Valiev, H. J. J. van Dam, Y. Alexeev, J. Anchell,
       V. Anisimov, F. W. Aquino, R. Atta-Fynn, J. Autschbach, N. P. Bauman,
     J. C. Becca, D. E. Bernholdt, K. Bhaskaran-Nair, S. Bogatko, P. Borowski,
         J. Boschen, J. Brabec, A. Bruner, E. Cauet, Y. Chen, G. N. Chuev,
      C. J. Cramer, J. Daily, M. J. O. Deegan, T. H. Dunning Jr., M. Dupuis,
   K. G. Dyall, G. I. Fann, S. A. Fischer, A. Fonari, H. Fruchtl, L. Gagliardi,
      J. Garza, N. Gawande, S. Ghosh, K. Glaesemann, A. W. Gotz, J. Hammond,
       V. Helms, E. D. Hermes, K. Hirao, S. Hirata, M. Jacquelin, L. Jensen,
   B. G. Johnson, H. Jonsson, R. A. Kendall, M. Klemm, R. Kobayashi, V. Konkov,
      S. Krishnamoorthy, M. Krishnan, Z. Lin, R. D. Lins, R. J. Littlefield,
      A. J. Logsdail, K. Lopata, W. Ma, A. V. Marenich, J. Martin del Campo,
   D. Mejia-Rodriguez, J. E. Moore, J. M. Mullin, T. Nakajima, D. R. Nascimento,
    J. A. Nichols, P. J. Nichols, J. Nieplocha, A. Otero-de-la-Roza, B. Palmer,
    A. Panyala, T. Pirojsirikul, B. Peng, R. Peverati, J. Pittner, L. Pollack,
   R. M. Richard, P. Sadayappan, G. C. Schatz, W. A. Shelton, D. W. Silverstein,
   D. M. A. Smith, T. A. Soares, D. Song, M. Swart, H. L. Taylor, G. S. Thomas,
            V. Tipparaju, D. G. Truhlar, K. Tsemekhman, T. Van Voorhis,
      A. Vazquez-Mayagoitia, P. Verma, O. Villa, A. Vishnu, K. D. Vogiatzis,
        D. Wang, J. H. Weare, M. J. Williamson, T. L. Windus, K. Wolinski,
        A. T. Wong, Q. Wu, C. Yang, Q. Yu, M. Zacharias, Z. Zhang, Y. Zhao,
                                and R. J. Harrison
                        "NWChem: Past, present, and future
                         J. Chem. Phys. 152, 184102 (2020)
                               doi:10.1063/5.0004997

                                      AUTHORS
                                      -------
  E. Apra, E. J. Bylaska, N. Govind, K. Kowalski, M. Valiev, D. Mejia-Rodriguez,
       A. Kunitsa, N. P. Bauman, A. Panyala, W. A. de Jong, T. P. Straatsma,
   H. J. J. van Dam, D. Wang, T. L. Windus, J. Hammond, J. Autschbach, A. Woods,
    K. Bhaskaran-Nair, J. Brabec, K. Lopata, S. A. Fischer, S. Krishnamoorthy,
     M. Jacquelin, W. Ma, M. Klemm, O. Villa, Y. Chen, V. Anisimov, F. Aquino,
     S. Hirata, M. T. Hackler, E. Hermes, L. Jensen, J. E. Moore, J. C. Becca,
      V. Konjkov, T. Risthaus, M. Malagoli, A. Marenich, A. Otero-de-la-Roza,
        J. Mullin, P. Nichols, R. Peverati, J. Pittner, Y. Zhao, P.-D. Fan,
        A. Fonari, M. J. Williamson, R. J. Harrison, J. R. Rehr, M. Dupuis,
     D. Silverstein, D. M. A. Smith, J. Nieplocha, V. Tipparaju, M. Krishnan,
     B. E. Van Kuiken, A. Vazquez-Mayagoitia, M. Swart, Q. Wu, T. Van Voorhis,
     A. A. Auer, M. Nooijen, L. D. Crosby, E. Brown, G. Cisneros, G. I. Fann,
   H. Fruchtl, J. Garza, K. Hirao, R. A. Kendall, J. A. Nichols, K. Tsemekhman,
    K. Wolinski, J. Anchell, D. E. Bernholdt, P. Borowski, T. Clark, D. Clerc,
   H. Dachsel, M. J. O. Deegan, K. Dyall, D. Elwood, E. Glendening, M. Gutowski,
   A. C. Hess, J. Jaffe, B. G. Johnson, J. Ju, R. Kobayashi, R. Kutteh, Z. Lin,
   R. Littlefield, X. Long, B. Meng, T. Nakajima, S. Niu, L. Pollack, M. Rosing,
   K. Glaesemann, G. Sandrone, M. Stave, H. Taylor, G. Thomas, J. H. van Lenthe,
                               A. T. Wong, Z. Zhang.

 Total times  cpu:     2040.0s     wall:     2070.7s
