 argument  1 = m2e/mol.nwi
                                         
                                         


             Northwest Computational Chemistry Package (NWChem) 7.2.2
             --------------------------------------------------------


                    Environmental Molecular Sciences Laboratory
                       Pacific Northwest National Laboratory
                                Richland, WA 99352

                              Copyright (c) 1994-2022
                       Pacific Northwest National Laboratory
                            Battelle Memorial Institute

             NWChem is an open-source computational chemistry package
                        distributed under the terms of the
                      Educational Community License (ECL) 2.0
             A copy of the license is included with this distribution
                              in the LICENSE.TXT file

                                  ACKNOWLEDGMENT
                                  --------------

            This software and its documentation were developed at the
            EMSL at Pacific Northwest National Laboratory, a multiprogram
            national laboratory, operated for the U.S. Department of Energy
            by Battelle under Contract Number DE-AC05-76RL01830. Support
            for this work was provided by the Department of Energy Office
            of Biological and Environmental Research, Office of Basic
            Energy Sciences, and the Office of Advanced Scientific Computing.


           Job information
           ---------------

    hostname        = r241.ib.bridges2.psc.edu
    program         = nwchem
    date            = Tue Oct  1 15:13:29 2024

    compiled        = Mon_Mar_18_17:03:37_2024
    source          = /ocean/projects/pscstaff/mmadrid/nwchem-7.2.2
    nwchem branch   = 7.2.2
    nwchem revision = 74936fb9
    ga revision     = 5.8.0
    use scalapack   = F
    input           = m2e/mol.nwi
    prefix          = dft.
    data base       = .//dft.db
    status          = startup
    nproc           =       15
    time left       =     -1s



           Memory information
           ------------------

    heap     =   67108858 doubles =    512.0 Mbytes
    stack    =   67108863 doubles =    512.0 Mbytes
    global   =  134217728 doubles =   1024.0 Mbytes (distinct from heap & stack)
    total    =  268435449 doubles =   2048.0 Mbytes
    verify   = yes
    hardfail = no 


           Directory information
           ---------------------

  0 permanent = ./
  0 scratch   = /jet/home/hmt47/nwchem_scratch/




                                NWChem Input Module
                                -------------------


  library name resolved from: environment
  library file name is: </opt/packages/nwchem/nwchem7.2.2/share/nwchem/libraries/>
  


 Summary of "ao basis" -> "" (cartesian)
 ------------------------------------------------------------------------------
       Tag                 Description            Shells   Functions and Types
 ---------------- ------------------------------  ------  ---------------------
 *                        aug-cc-pVTZ                 on all atoms 


  pbe96 is a nonlocal functional; adding pw91lda local functional. 

 Scaling coordinates for geometry "geometry" by  1.889725989
 (inverse scale =  0.529177249)



                             Geometry "geometry" -> ""
                             -------------------------

 Output coordinates in angstroms (scale by  1.889725989 to convert to a.u.)

  No.       Tag          Charge          X              Y              Z
 ---- ---------------- ---------- -------------- -------------- --------------
    1 S                   16.0000     0.00000000     0.00000000     0.00000000
    2 O                    8.0000    -0.17411100     1.53204900    -0.01918500
    3 O                    8.0000    -1.41516900    -0.61177400    -0.01953900
    4 O                    8.0000     0.72791400    -0.42143100     1.18530200

      Atomic Mass 
      ----------- 

      S                 31.972070
      O                 15.994910


 Effective nuclear repulsion energy (a.u.)     175.6005859558

            Nuclear Dipole moment (a.u.) 
            ----------------------------
        X                 Y               Z
 ---------------- ---------------- ----------------
   -13.0219657270     7.5414277684    17.3337459563


            XYZ format geometry
            -------------------
     4
 geometry
 S                     0.00000000     0.00000000     0.00000000
 O                    -0.17411100     1.53204900    -0.01918500
 O                    -1.41516900    -0.61177400    -0.01953900
 O                     0.72791400    -0.42143100     1.18530200

 ==============================================================================
                                internuclear distances
 ------------------------------------------------------------------------------
       center one      |      center two      | atomic units |  angstroms
 ------------------------------------------------------------------------------
    2 O                |   1 S                |     2.91401  |     1.54203
    3 O                |   1 S                |     2.91371  |     1.54187
    4 O                |   1 S                |     2.74655  |     1.45341
 ------------------------------------------------------------------------------
                         number of included internuclear distances:          3
 ==============================================================================



 ==============================================================================
                                 internuclear angles
 ------------------------------------------------------------------------------
        center 1       |       center 2       |       center 3       |  degrees
 ------------------------------------------------------------------------------
    2 O                |   1 S                |   3 O                |   106.88
    2 O                |   1 S                |   4 O                |   110.78
    3 O                |   1 S                |   4 O                |   110.79
 ------------------------------------------------------------------------------
                            number of included internuclear angles:          3
 ==============================================================================





                           NWChem Geometry Optimization
                           ----------------------------


 maximum gradient threshold         (gmax) =   0.000450
 rms gradient threshold             (grms) =   0.000300
 maximum cartesian step threshold   (xmax) =   0.001800
 rms cartesian step threshold       (xrms) =   0.001200
 fixed trust radius                (trust) =   0.300000
 maximum step size to saddle      (sadstp) =   0.100000
 energy precision                  (eprec) =   5.0D-06
 maximum number of steps          (nptopt) =   40
 initial hessian option           (inhess) =    0
 line search option               (linopt) =    1
 hessian update option            (modupd) =    1
 saddle point option              (modsad) =    0
 initial eigen-mode to follow     (moddir) =    0
 initial variable to follow       (vardir) =    0
 follow first negative mode     (firstneg) =    T
 apply conjugacy                    (opcg) =    F
 source of zmatrix                         =           


          -------------------
          Energy Minimization
          -------------------


 Using diagonal initial Hessian 

          --------
          Step   0
          --------


                         Geometry "geometry" -> "geometry"
                         ---------------------------------

 Output coordinates in angstroms (scale by  1.889725989 to convert to a.u.)

  No.       Tag          Charge          X              Y              Z
 ---- ---------------- ---------- -------------- -------------- --------------
    1 S                   16.0000     0.00000000     0.00000000     0.00000000
    2 O                    8.0000    -0.17411100     1.53204900    -0.01918500
    3 O                    8.0000    -1.41516900    -0.61177400    -0.01953900
    4 O                    8.0000     0.72791400    -0.42143100     1.18530200

      Atomic Mass 
      ----------- 

      S                 31.972070
      O                 15.994910


 Effective nuclear repulsion energy (a.u.)     175.6005859558

            Nuclear Dipole moment (a.u.) 
            ----------------------------
        X                 Y               Z
 ---------------- ---------------- ----------------
   -13.0219657270     7.5414277684    17.3337459563


                                 NWChem DFT Module
                                 -----------------


                      Basis "ao basis" -> "ao basis" (cartesian)
                      -----
  S (Sulphur)
  -----------
            Exponent  Coefficients 
       -------------- ---------------------------------------------------------
  1 S  3.74100000E+05  0.000054
  1 S  5.60500000E+04  0.000421
  1 S  1.27600000E+04  0.002207
  1 S  3.61500000E+03  0.009193
  1 S  1.18300000E+03  0.032112
  1 S  4.28800000E+02  0.094668
  1 S  1.67800000E+02  0.223630
  1 S  6.94700000E+01  0.374393
  1 S  2.98400000E+01  0.329108
  1 S  1.27200000E+01  0.084704
  1 S  5.24400000E+00  0.000441
  1 S  2.21900000E+00  0.001648
  1 S  3.49000000E-01  0.000301

  2 S  3.74100000E+05 -0.000015
  2 S  5.60500000E+04 -0.000116
  2 S  1.27600000E+04 -0.000612
  2 S  3.61500000E+03 -0.002554
  2 S  1.18300000E+03 -0.009087
  2 S  4.28800000E+02 -0.027705
  2 S  1.67800000E+02 -0.072002
  2 S  6.94700000E+01 -0.146439
  2 S  2.98400000E+01 -0.195150
  2 S  1.27200000E+01  0.008192
  2 S  5.24400000E+00  0.516601
  2 S  2.21900000E+00  0.542178
  2 S  3.49000000E-01 -0.009181

  3 S  3.74100000E+05  0.000004
  3 S  5.60500000E+04  0.000034
  3 S  1.27600000E+04  0.000178
  3 S  3.61500000E+03  0.000741
  3 S  1.18300000E+03  0.002646
  3 S  4.28800000E+02  0.008075
  3 S  1.67800000E+02  0.021228
  3 S  6.94700000E+01  0.043832
  3 S  2.98400000E+01  0.061272
  3 S  1.27200000E+01 -0.003615
  3 S  5.24400000E+00 -0.204510
  3 S  2.21900000E+00 -0.381871
  3 S  3.49000000E-01  0.714147

  4 S  7.76700000E-01  1.000000

  5 S  1.32200000E-01  1.000000

  6 S  4.97000000E-02  1.000000

  7 P  5.74400000E+02  0.002423
  7 P  1.35800000E+02  0.019280
  7 P  4.31900000E+01  0.088540
  7 P  1.58700000E+01  0.254654
  7 P  6.20800000E+00  0.433984
  7 P  2.48300000E+00  0.354953
  7 P  3.22900000E-01 -0.005030

  8 P  5.74400000E+02 -0.000620
  8 P  1.35800000E+02 -0.004939
  8 P  4.31900000E+01 -0.023265
  8 P  1.58700000E+01 -0.068520
  8 P  6.20800000E+00 -0.123896
  8 P  2.48300000E+00 -0.096950
  8 P  3.22900000E-01  0.569394

  9 P  8.68800000E-01  1.000000

 10 P  1.09800000E-01  1.000000

 11 P  3.51000000E-02  1.000000

 12 D  2.69000000E-01  1.000000

 13 D  8.19000000E-01  1.000000

 14 D  1.01000000E-01  1.000000

 15 F  5.57000000E-01  1.000000

 16 F  2.18000000E-01  1.000000

  O (Oxygen)
  ----------
            Exponent  Coefficients 
       -------------- ---------------------------------------------------------
  1 S  1.53300000E+04  0.000508
  1 S  2.29900000E+03  0.003929
  1 S  5.22400000E+02  0.020243
  1 S  1.47300000E+02  0.079181
  1 S  4.75500000E+01  0.230687
  1 S  1.67600000E+01  0.433118
  1 S  6.20700000E+00  0.350260
  1 S  6.88200000E-01 -0.008154

  2 S  1.53300000E+04 -0.000115
  2 S  2.29900000E+03 -0.000895
  2 S  5.22400000E+02 -0.004636
  2 S  1.47300000E+02 -0.018724
  2 S  4.75500000E+01 -0.058463
  2 S  1.67600000E+01 -0.136463
  2 S  6.20700000E+00 -0.175740
  2 S  6.88200000E-01  0.603418

  3 S  1.75200000E+00  1.000000

  4 S  2.38400000E-01  1.000000

  5 S  7.37600000E-02  1.000000

  6 P  3.44600000E+01  0.015928
  6 P  7.74900000E+00  0.099740
  6 P  2.28000000E+00  0.310492

  7 P  7.15600000E-01  1.000000

  8 P  2.14000000E-01  1.000000

  9 P  5.97400000E-02  1.000000

 10 D  2.31400000E+00  1.000000

 11 D  6.45000000E-01  1.000000

 12 D  2.14000000E-01  1.000000

 13 F  1.42800000E+00  1.000000

 14 F  5.00000000E-01  1.000000



 Summary of "ao basis" -> "ao basis" (cartesian)
 ------------------------------------------------------------------------------
       Tag                 Description            Shells   Functions and Types
 ---------------- ------------------------------  ------  ---------------------
 S                        aug-cc-pVTZ               16       59   6s5p3d2f
 O                        aug-cc-pVTZ               14       55   5s4p3d2f




 Summary of "ao basis" -> "ao basis" (cartesian)
 ------------------------------------------------------------------------------
       Tag                 Description            Shells   Functions and Types
 ---------------- ------------------------------  ------  ---------------------
 S                        aug-cc-pVTZ               16       59   6s5p3d2f
 O                        aug-cc-pVTZ               14       55   5s4p3d2f


  Caching 1-el integrals 

            General Information
            -------------------
          SCF calculation type: DFT
          Wavefunction type:  closed shell.
          No. of atoms     :     4
          No. of electrons :    42
           Alpha electrons :    21
            Beta electrons :    21
          Charge           :    -2
          Spin multiplicity:     1
          Use of symmetry is: off; symmetry adaption is: off
          Maximum number of iterations: 100
          AO basis - number of functions:   224
                     number of shells:    58
          Convergence on energy requested:  1.00D-06
          Convergence on density requested:  1.00D-05
          Convergence on gradient requested:  5.00D-04

              XC Information
              --------------
          PerdewBurkeErnzerhof Exchange Functional  1.000          
            Perdew 1991 LDA Correlation Functional  1.000 local    
           PerdewBurkeErnz. Correlation Functional  1.000 non-local

             Grid Information
             ----------------
          Grid used for XC integration:  medium    
          Radial quadrature: Mura-Knowles        
          Angular quadrature: Lebedev. 
          Tag              B.-S. Rad. Rad. Pts. Rad. Cut. Ang. Pts.
          ---              ---------- --------- --------- ---------
          S                   1.00       88          10.0       590
          O                   0.60       49          11.0       434
          Grid pruning is: on 
          Number of quadrature shells:   235
          Spatial weights used:  Erf1

          Convergence Information
          -----------------------
          Convergence aids based upon iterative change in 
          total energy or number of iterations. 
          Levelshifting, if invoked, occurs when the 
          HOMO/LUMO gap drops below (HL_TOL):  1.00D-02
          DIIS, if invoked, will attempt to extrapolate 
          using up to (NFOCK): 10 stored Fock matrices.

                    Damping(40%)  Levelshifting(0.0)       DIIS
                  --------------- ------------------- ---------------
          dE  on:    start            0.00D+00            start   
          dE off:  100 iters          0.00D+00          100 iters 


      Screening Tolerance Information
      -------------------------------
          Density screening/tol_rho:  1.00D-10
          AO Gaussian exp screening on grid/accAOfunc:  14
          CD Gaussian exp screening on grid/accCDfunc:  20
          XC Gaussian exp screening on grid/accXCfunc:  20
          Schwarz screening/accCoul:  1.00D-08


 Forcing the number of linearly dependent vectors to be  0

      Superposition of Atomic Density Guess
      -------------------------------------

 Sum of atomic energies:        -621.83087188
   Time after variat. SCF:      0.5
   Time prior to 1st pass:      0.5

 Grid_pts file          = /jet/home/hmt47/nwchem_scratch//dft.gridpts.00
 Record size in doubles =  12289        No. of grid_pts per rec  =   3070
 Max. records in memory =      5        Max. recs in file   =  67550051

 Grid integrated density:      39.999999954242
 Requested integration accuracy:   0.10E-05

           Memory utilization after 1st SCF pass: 
           Heap Space remaining (MW):       33.49            33487242
          Stack Space remaining (MW):       67.11            67107644

   convergence    iter        energy       DeltaE   RMS-Dens  Diis-err    time
 ---------------- ----- ----------------- --------- --------- ---------  ------
 d=40,ls=0.0,diis     1   -624.2859631123 -8.00D+02  1.33D-02  3.97D+01     0.8
 Grid integrated density:      41.199999801918
 Requested integration accuracy:   0.10E-05
 d=40,ls=0.0,diis     2   -623.8096096283  4.76D-01  1.83D+00  7.20D+00     2.1
 Grid integrated density:      41.679997242749
 Requested integration accuracy:   0.10E-05
 d=40,ls=0.0,diis     3   -620.4594151731  3.35D+00  1.09D+00  1.20D+01     3.4
 Grid integrated density:      41.871998795400
 Requested integration accuracy:   0.10E-05
 d=40,ls=0.0,diis     4   -623.0424688835 -2.58D+00  4.12D-01  1.32D+00     4.7
 Grid integrated density:      41.948799427733
 Requested integration accuracy:   0.10E-05
 d=40,ls=0.0,diis     5   -623.3856032964 -3.43D-01  1.26D-01  6.94D-02     6.0
 Grid integrated density:      41.979519661504
 Requested integration accuracy:   0.10E-05
 d=40,ls=0.0,diis     6   -623.4473228598 -6.17D-02  3.79D-02  3.93D-02     7.2
 Grid integrated density:      41.991807737232
 Requested integration accuracy:   0.10E-05
  Resetting Diis
 d=40,ls=0.0,diis     7   -623.4717908808 -2.45D-02  1.43D-02  2.92D-02     8.5
 Grid integrated density:      41.996723348389
 Requested integration accuracy:   0.10E-05
 d=40,ls=0.0,diis     8   -623.4836274715 -1.18D-02  4.76D-02  1.06D-02     9.8
 Grid integrated density:      41.998689477441
 Requested integration accuracy:   0.10E-05
 d=40,ls=0.0,diis     9   -623.4855439044 -1.92D-03  2.43D-02  2.14D-02    11.1
 Grid integrated density:      41.999475892660
 Requested integration accuracy:   0.10E-05
 d=40,ls=0.0,diis    10   -623.4895909653 -4.05D-03  4.34D-03  3.07D-03    12.4
 Grid integrated density:      41.999790465339
 Requested integration accuracy:   0.10E-05
 d=40,ls=0.0,diis    11   -623.4908118892 -1.22D-03  7.62D-04  5.29D-04    13.7
 Grid integrated density:      41.999916297280
 Requested integration accuracy:   0.10E-05
 d=40,ls=0.0,diis    12   -623.4912631082 -4.51D-04  2.46D-03  1.05D-04    15.0
 d=40,ls=0.0,diis    13   -623.4914405008 -1.77D-04  8.61D-04  1.70D-05    16.2
 d=40,ls=0.0,diis    14   -623.4915094231 -6.89D-05  3.50D-04  2.94D-06    17.5
 d=40,ls=0.0,diis    15   -623.4915367433 -2.73D-05  1.45D-04  4.67D-07    18.8
 d=40,ls=0.0,diis    16   -623.4915476223 -1.09D-05  5.94D-05  7.37D-08    20.3
 d=40,ls=0.0,diis    17   -623.4915519659 -4.34D-06  2.01D-05  1.12D-08    21.6
 d=40,ls=0.0,diis    18   -623.4915537020 -1.74D-06  8.68D-06  2.17D-09    22.8
 d=40,ls=0.0,diis    19   -623.4915543963 -6.94D-07  3.38D-06  4.22D-10    24.1


         Total DFT energy =     -623.491554396274
      One electron energy =    -1227.318136665712
           Coulomb energy =      479.730511712247
    Exchange-Corr. energy =      -51.504515398634
 Nuclear repulsion energy =      175.600585955826

 Numeric. integr. density =       42.000000043598

     Total iterative time =     23.7s



                       DFT Final Molecular Orbital Analysis
                       ------------------------------------

 Vector    1  Occ=2.000000D+00  E=-8.780042D+01
              MO Center= -1.5D-06,  8.8D-07,  5.1D-06, r^2= 3.6D-03
   Bfn.  Coefficient  Atom+Function         Bfn.  Coefficient  Atom+Function  
  ----- ------------  ---------------      ----- ------------  ---------------
     1      1.002762  1 S  s          

 Vector    2  Occ=2.000000D+00  E=-1.833656D+01
              MO Center=  7.3D-01, -4.2D-01,  1.2D+00, r^2= 1.5D-02
   Bfn.  Coefficient  Atom+Function         Bfn.  Coefficient  Atom+Function  
  ----- ------------  ---------------      ----- ------------  ---------------
   170      0.977360  4 O  s                172      0.062381  4 O  s          
   173     -0.056804  4 O  s          

 Vector    3  Occ=2.000000D+00  E=-1.832395D+01
              MO Center= -1.4D+00, -5.9D-01, -2.0D-02, r^2= 8.7D-02
   Bfn.  Coefficient  Atom+Function         Bfn.  Coefficient  Atom+Function  
  ----- ------------  ---------------      ----- ------------  ---------------
   115      0.971383  3 O  s                 60      0.106864  2 O  s          
   117      0.061617  3 O  s                118     -0.056914  3 O  s          

 Vector    4  Occ=2.000000D+00  E=-1.832392D+01
              MO Center= -1.9D-01,  1.5D+00, -1.9D-02, r^2= 8.7D-02
   Bfn.  Coefficient  Atom+Function         Bfn.  Coefficient  Atom+Function  
  ----- ------------  ---------------      ----- ------------  ---------------
    60      0.971325  2 O  s                115     -0.106335  3 O  s          
    62      0.061571  2 O  s                 63     -0.055743  2 O  s          

 Vector    5  Occ=2.000000D+00  E=-7.387308D+00
              MO Center= -1.4D-03,  8.0D-04,  2.6D-03, r^2= 7.7D-02
   Bfn.  Coefficient  Atom+Function         Bfn.  Coefficient  Atom+Function  
  ----- ------------  ---------------      ----- ------------  ---------------
     2      0.903680  1 S  s                  4      0.108687  1 S  s          
     3     -0.039437  1 S  s          

 Vector    6  Occ=2.000000D+00  E=-5.409642D+00
              MO Center= -1.0D-04,  6.1D-05,  1.2D-04, r^2= 6.9D-02
   Bfn.  Coefficient  Atom+Function         Bfn.  Coefficient  Atom+Function  
  ----- ------------  ---------------      ----- ------------  ---------------
     7      0.786537  1 S  px                 9      0.617384  1 S  pz         
     8     -0.454820  1 S  py                10      0.198004  1 S  px         
    12      0.171845  1 S  pz                11     -0.114476  1 S  py         
   173     -0.100884  4 O  s                 40     -0.066984  1 S  fxxx       
    43     -0.067011  1 S  fxyy              45     -0.061972  1 S  fxzz       

 Vector    7  Occ=2.000000D+00  E=-5.409456D+00
              MO Center= -7.7D-05,  4.5D-05,  1.2D-04, r^2= 6.9D-02
   Bfn.  Coefficient  Atom+Function         Bfn.  Coefficient  Atom+Function  
  ----- ------------  ---------------      ----- ------------  ---------------
     8      0.935309  1 S  py                 7      0.540977  1 S  px         
    11      0.213502  1 S  py                10      0.123517  1 S  px         
    48     -0.079975  1 S  fyzz              41     -0.072216  1 S  fxxy       
    46     -0.072197  1 S  fyyy              63     -0.058245  2 O  s          
   118      0.058273  3 O  s                 45     -0.046267  1 S  fxzz       

 Vector    8  Occ=2.000000D+00  E=-5.404039D+00
              MO Center=  1.3D-03, -7.5D-04, -2.2D-03, r^2= 6.9D-02
   Bfn.  Coefficient  Atom+Function         Bfn.  Coefficient  Atom+Function  
  ----- ------------  ---------------      ----- ------------  ---------------
     9      0.874818  1 S  pz                 7     -0.500044  1 S  px         
     8      0.289323  1 S  py                12      0.155586  1 S  pz         
     5      0.105154  1 S  s                 10     -0.074379  1 S  px         
   173     -0.071662  4 O  s                 42     -0.058080  1 S  fxxz       
    47     -0.058267  1 S  fyyz              49     -0.058148  1 S  fzzz       

 Vector    9  Occ=2.000000D+00  E=-5.978231D-01
              MO Center=  4.9D-02, -2.9D-02,  4.7D-01, r^2= 1.3D+00
   Bfn.  Coefficient  Atom+Function         Bfn.  Coefficient  Atom+Function  
  ----- ------------  ---------------      ----- ------------  ---------------
     3      0.340719  1 S  s                171      0.292611  4 O  s          
   173      0.212358  4 O  s                 61      0.166666  2 O  s          
   116      0.166808  3 O  s                 63      0.125039  2 O  s          
   118      0.125144  3 O  s                172      0.080678  4 O  s          
    15      0.062675  1 S  pz               174      0.057450  4 O  s          

 Vector   10  Occ=2.000000D+00  E=-4.816303D-01
              MO Center= -9.5D-02,  5.3D-02,  4.1D-01, r^2= 1.9D+00
   Bfn.  Coefficient  Atom+Function         Bfn.  Coefficient  Atom+Function  
  ----- ------------  ---------------      ----- ------------  ---------------
   171      0.328981  4 O  s                 61     -0.239221  2 O  s          
   116     -0.240091  3 O  s                173      0.222998  4 O  s          
    63     -0.173626  2 O  s                118     -0.174246  3 O  s          
    13      0.107554  1 S  px               172      0.089809  4 O  s          
     7     -0.082116  1 S  px               174      0.081439  4 O  s          

 Vector   11  Occ=2.000000D+00  E=-4.546942D-01
              MO Center= -6.4D-01,  3.7D-01, -1.0D-02, r^2= 1.7D+00
   Bfn.  Coefficient  Atom+Function         Bfn.  Coefficient  Atom+Function  
  ----- ------------  ---------------      ----- ------------  ---------------
    61      0.339952  2 O  s                116     -0.339248  3 O  s          
    63      0.245356  2 O  s                118     -0.244827  3 O  s          
    14      0.117554  1 S  py                62      0.094448  2 O  s          
   117     -0.094249  3 O  s                  8     -0.087726  1 S  py         
    64      0.070732  2 O  s                119     -0.070625  3 O  s          

 Vector   12  Occ=2.000000D+00  E=-1.181459D-01
              MO Center= -1.2D-01,  7.0D-02,  3.1D-01, r^2= 2.6D+00
   Bfn.  Coefficient  Atom+Function         Bfn.  Coefficient  Atom+Function  
  ----- ------------  ---------------      ----- ------------  ---------------
     3      0.428487  1 S  s                  5      0.252758  1 S  s          
   173     -0.222438  4 O  s                171     -0.216549  4 O  s          
    63     -0.204860  2 O  s                118     -0.204900  3 O  s          
    61     -0.197582  2 O  s                116     -0.197621  3 O  s          
     6      0.108022  1 S  s                177     -0.103637  4 O  pz         

 Vector   13  Occ=2.000000D+00  E=-6.809453D-04
              MO Center=  9.3D-02, -5.6D-02,  6.5D-01, r^2= 2.5D+00
   Bfn.  Coefficient  Atom+Function         Bfn.  Coefficient  Atom+Function  
  ----- ------------  ---------------      ----- ------------  ---------------
   177      0.202339  4 O  pz               180      0.194600  4 O  pz         
    13     -0.156196  1 S  px               171      0.156479  4 O  s          
   173      0.155543  4 O  s                 15     -0.131283  1 S  pz         
    66     -0.119729  2 O  py               183      0.118837  4 O  pz         
    69     -0.116491  2 O  py               118     -0.101347  3 O  s          

 Vector   14  Occ=2.000000D+00  E= 9.536984D-04
              MO Center= -4.5D-01,  2.6D-01,  1.7D-01, r^2= 2.6D+00
   Bfn.  Coefficient  Atom+Function         Bfn.  Coefficient  Atom+Function  
  ----- ------------  ---------------      ----- ------------  ---------------
    14      0.193096  1 S  py               120     -0.176168  3 O  px         
   123     -0.172204  3 O  px                66     -0.164167  2 O  py         
    69     -0.160016  2 O  py                63     -0.140783  2 O  s          
   118      0.140357  3 O  s                 61     -0.138962  2 O  s          
   116      0.138624  3 O  s                  8     -0.119147  1 S  py         

 Vector   15  Occ=2.000000D+00  E= 2.569958D-03
              MO Center=  3.9D-02, -2.3D-02,  2.2D-01, r^2= 2.1D+00
   Bfn.  Coefficient  Atom+Function         Bfn.  Coefficient  Atom+Function  
  ----- ------------  ---------------      ----- ------------  ---------------
     5      0.207532  1 S  s                 15     -0.188723  1 S  pz         
   175      0.146054  4 O  px               178      0.144274  4 O  px         
    13      0.117543  1 S  px                12     -0.109235  1 S  pz         
     9      0.106313  1 S  pz               181      0.104906  4 O  px         
    67     -0.098984  2 O  pz               122     -0.099056  3 O  pz         

 Vector   16  Occ=2.000000D+00  E= 1.049331D-01
              MO Center=  2.7D-02, -1.5D-02,  6.4D-01, r^2= 2.6D+00
   Bfn.  Coefficient  Atom+Function         Bfn.  Coefficient  Atom+Function  
  ----- ------------  ---------------      ----- ------------  ---------------
   176      0.226978  4 O  py               179      0.226138  4 O  py         
   182      0.167060  4 O  py                66      0.140047  2 O  py         
    69      0.133213  2 O  py               175      0.131323  4 O  px         
   178      0.130838  4 O  px               120      0.111635  3 O  px         
   123      0.105653  3 O  px                64     -0.101970  2 O  s          

 Vector   17  Occ=2.000000D+00  E= 1.120387D-01
              MO Center= -4.8D-01,  2.8D-01,  2.2D-01, r^2= 2.6D+00
   Bfn.  Coefficient  Atom+Function         Bfn.  Coefficient  Atom+Function  
  ----- ------------  ---------------      ----- ------------  ---------------
    65      0.214259  2 O  px                68      0.212202  2 O  px         
   121     -0.179155  3 O  py               124     -0.178452  3 O  py         
   177      0.158753  4 O  pz               180      0.152139  4 O  pz         
    71      0.148670  2 O  px               127     -0.132945  3 O  py         
    29      0.129333  1 S  dxy              174     -0.129816  4 O  s          

 Vector   18  Occ=2.000000D+00  E= 1.385978D-01
              MO Center= -3.3D-02,  1.7D-02,  4.1D-01, r^2= 2.9D+00
   Bfn.  Coefficient  Atom+Function         Bfn.  Coefficient  Atom+Function  
  ----- ------------  ---------------      ----- ------------  ---------------
   175     -0.215436  4 O  px               178     -0.212067  4 O  px         
   174      0.209091  4 O  s                 67     -0.172782  2 O  pz         
   122     -0.173335  3 O  pz                70     -0.172077  2 O  pz         
   125     -0.172629  3 O  pz               181     -0.143346  4 O  px         
    73     -0.139962  2 O  pz               128     -0.140409  3 O  pz         

 Vector   19  Occ=2.000000D+00  E= 1.525104D-01
              MO Center= -6.5D-01,  3.8D-01, -6.0D-02, r^2= 2.6D+00
   Bfn.  Coefficient  Atom+Function         Bfn.  Coefficient  Atom+Function  
  ----- ------------  ---------------      ----- ------------  ---------------
    67      0.212158  2 O  pz                70      0.211931  2 O  pz         
   122     -0.211768  3 O  pz               125     -0.211543  3 O  pz         
    73      0.174281  2 O  pz               128     -0.173960  3 O  pz         
    64      0.153745  2 O  s                119     -0.153493  3 O  s          
   121     -0.141156  3 O  py               124     -0.139452  3 O  py         

 Vector   20  Occ=2.000000D+00  E= 1.835125D-01
              MO Center= -4.8D-01,  2.8D-01,  2.1D-01, r^2= 2.7D+00
   Bfn.  Coefficient  Atom+Function         Bfn.  Coefficient  Atom+Function  
  ----- ------------  ---------------      ----- ------------  ---------------
    68      0.220410  2 O  px                65      0.218607  2 O  px         
   121      0.209676  3 O  py               124      0.210708  3 O  py         
    71      0.182322  2 O  px               127      0.177190  3 O  py         
   179     -0.158152  4 O  py               176     -0.155486  4 O  py         
   130      0.138213  3 O  py               182     -0.138259  4 O  py         

 Vector   21  Occ=2.000000D+00  E= 2.171695D-01
              MO Center= -9.2D-02,  5.3D-02,  3.4D-02, r^2= 4.3D+00
   Bfn.  Coefficient  Atom+Function         Bfn.  Coefficient  Atom+Function  
  ----- ------------  ---------------      ----- ------------  ---------------
     6      2.444385  1 S  s                  5      1.475745  1 S  s          
   174     -1.285427  4 O  s                 64     -1.086813  2 O  s          
   119     -1.087202  3 O  s                186      0.443484  4 O  pz         
   129     -0.407387  3 O  px                75      0.389920  2 O  py         
    18      0.356203  1 S  pz               183      0.286752  4 O  pz         

 Vector   22  Occ=0.000000D+00  E= 2.648521D-01
              MO Center=  5.9D-01, -3.4D-01, -8.2D-01, r^2= 1.6D+01
   Bfn.  Coefficient  Atom+Function         Bfn.  Coefficient  Atom+Function  
  ----- ------------  ---------------      ----- ------------  ---------------
    64      2.649840  2 O  s                119      2.649005  3 O  s          
     6     -2.397771  1 S  s                174      2.082410  4 O  s          
    21     -1.949298  1 S  pz                 5      1.655238  1 S  s          
    19      1.638144  1 S  px                34     -1.026641  1 S  dxx        
    37     -0.988284  1 S  dyy               39     -0.985807  1 S  dzz        

 Vector   23  Occ=0.000000D+00  E= 2.683788D-01
              MO Center=  8.6D-01, -5.0D-01,  5.4D-01, r^2= 1.8D+01
   Bfn.  Coefficient  Atom+Function         Bfn.  Coefficient  Atom+Function  
  ----- ------------  ---------------      ----- ------------  ---------------
   174      6.527223  4 O  s                 18     -2.840581  1 S  pz         
    16     -2.445638  1 S  px                21     -1.910437  1 S  pz         
    19     -1.714028  1 S  px                 6     -1.642268  1 S  s          
    17      1.415130  1 S  py                64     -1.409323  2 O  s          
   119     -1.410554  3 O  s                186     -1.190123  4 O  pz         

 Vector   24  Occ=0.000000D+00  E= 2.696285D-01
              MO Center= -8.2D-02,  4.6D-02, -4.2D-01, r^2= 1.9D+01
   Bfn.  Coefficient  Atom+Function         Bfn.  Coefficient  Atom+Function  
  ----- ------------  ---------------      ----- ------------  ---------------
    64      4.167147  2 O  s                119     -4.171514  3 O  s          
    17     -2.883440  1 S  py                20     -2.481482  1 S  py         
    16     -1.670483  1 S  px                19     -1.436959  1 S  px         
   129     -0.916255  3 O  px                75     -0.792571  2 O  py         
    35      0.703121  1 S  dxy               34      0.612900  1 S  dxx        

 Vector   25  Occ=0.000000D+00  E= 2.844853D-01
              MO Center= -6.8D-01,  3.9D-01, -1.0D-01, r^2= 1.4D+01
   Bfn.  Coefficient  Atom+Function         Bfn.  Coefficient  Atom+Function  
  ----- ------------  ---------------      ----- ------------  ---------------
     6      8.408461  1 S  s                 64     -4.976426  2 O  s          
   119     -4.975228  3 O  s                  5      4.537414  1 S  s          
   174     -4.270809  4 O  s                 18      2.365120  1 S  pz         
    16     -2.027419  1 S  px                75      1.573074  2 O  py         
   129     -1.409622  3 O  px                17      1.174285  1 S  py         

 Vector   26  Occ=0.000000D+00  E= 3.481948D-01
              MO Center=  5.6D-01, -3.1D-01,  5.9D-01, r^2= 1.5D+01
   Bfn.  Coefficient  Atom+Function         Bfn.  Coefficient  Atom+Function  
  ----- ------------  ---------------      ----- ------------  ---------------
   174      5.489581  4 O  s                 16     -4.747652  1 S  px         
    18     -4.154456  1 S  pz               186     -3.045463  4 O  pz         
    17      2.785053  1 S  py                64     -2.168450  2 O  s          
   119     -2.128881  3 O  s                184     -1.864865  4 O  px         
   129     -1.606351  3 O  px                75      1.549607  2 O  py         

 Vector   27  Occ=0.000000D+00  E= 3.483328D-01
              MO Center= -7.8D-01,  4.4D-01, -3.0D-01, r^2= 1.6D+01
   Bfn.  Coefficient  Atom+Function         Bfn.  Coefficient  Atom+Function  
  ----- ------------  ---------------      ----- ------------  ---------------
    17      5.751573  1 S  py               119      4.204261  3 O  s          
    64     -4.182767  2 O  s                 16      3.360025  1 S  px         
    75      2.958530  2 O  py               129      2.578577  3 O  px         
    58     -1.689977  1 S  fyzz              51     -1.537874  1 S  fxxy       
    56     -1.538196  1 S  fyyy             130      1.481076  3 O  py         

 Vector   28  Occ=0.000000D+00  E= 3.766711D-01
              MO Center= -2.4D-01,  1.4D-01,  8.2D-01, r^2= 1.3D+01
   Bfn.  Coefficient  Atom+Function         Bfn.  Coefficient  Atom+Function  
  ----- ------------  ---------------      ----- ------------  ---------------
    18      2.098146  1 S  pz                35      2.024087  1 S  dxy        
     6     -1.883896  1 S  s                 39      1.538140  1 S  dzz        
    37      1.197636  1 S  dyy               74     -1.199651  2 O  px         
   184      1.036040  4 O  px               129     -0.992613  3 O  px         
   130      0.815083  3 O  py                23      0.723233  1 S  dxy        

 Vector   29  Occ=0.000000D+00  E= 3.772841D-01
              MO Center= -7.4D-02,  4.5D-02,  7.6D-01, r^2= 1.3D+01
   Bfn.  Coefficient  Atom+Function         Bfn.  Coefficient  Atom+Function  
  ----- ------------  ---------------      ----- ------------  ---------------
    38      2.335876  1 S  dyz              185     -1.599062  4 O  py         
    36      1.351261  1 S  dxz               17      1.245596  1 S  py         
    76     -1.097791  2 O  pz               131      1.096550  3 O  pz         
   184     -0.922443  4 O  px                64      0.863263  2 O  s          
   119     -0.865372  3 O  s                 20      0.834427  1 S  py         

 Vector   30  Occ=0.000000D+00  E= 3.838657D-01
              MO Center= -1.1D+00,  6.2D-01,  6.1D-01, r^2= 1.2D+01
   Bfn.  Coefficient  Atom+Function         Bfn.  Coefficient  Atom+Function  
  ----- ------------  ---------------      ----- ------------  ---------------
     6      4.989102  1 S  s                 34     -2.700973  1 S  dxx        
     5     -2.642566  1 S  s                 39     -2.218026  1 S  dzz        
    37     -2.170978  1 S  dyy               18     -2.098554  1 S  pz         
    16      1.959054  1 S  px                75     -1.159105  2 O  py         
   130      1.147837  3 O  py                17     -1.135258  1 S  py         

 Vector   31  Occ=0.000000D+00  E= 4.088057D-01
              MO Center=  1.6D-01, -9.2D-02, -3.1D-01, r^2= 1.4D+01
   Bfn.  Coefficient  Atom+Function         Bfn.  Coefficient  Atom+Function  
  ----- ------------  ---------------      ----- ------------  ---------------
     5      9.335718  1 S  s                174     -3.364327  4 O  s          
    37      3.266093  1 S  dyy               34      3.019195  1 S  dxx        
    64     -2.571993  2 O  s                119     -2.573574  3 O  s          
   186      2.581388  4 O  pz                 6     -2.469371  1 S  s          
    39      2.296502  1 S  dzz              129     -2.102628  3 O  px         

 Vector   32  Occ=0.000000D+00  E= 4.398477D-01
              MO Center= -1.9D-02,  9.5D-03,  6.6D-01, r^2= 1.3D+01
   Bfn.  Coefficient  Atom+Function         Bfn.  Coefficient  Atom+Function  
  ----- ------------  ---------------      ----- ------------  ---------------
   185      2.231494  4 O  py                76     -1.449560  2 O  pz         
   131      1.452709  3 O  pz                64     -1.422052  2 O  s          
   119      1.424256  3 O  s                184      1.294745  4 O  px         
   129      0.986789  3 O  px                20     -0.923576  1 S  py         
    75      0.778536  2 O  py                35     -0.634426  1 S  dxy        

 Vector   33  Occ=0.000000D+00  E= 4.433822D-01
              MO Center= -8.4D-01,  4.7D-01,  3.0D-02, r^2= 1.1D+01
   Bfn.  Coefficient  Atom+Function         Bfn.  Coefficient  Atom+Function  
  ----- ------------  ---------------      ----- ------------  ---------------
   130      2.539616  3 O  py                74      2.083755  2 O  px         
    64     -2.060419  2 O  s                119      1.985544  3 O  s          
    75      1.421423  2 O  py                20     -1.398928  1 S  py         
   126      0.919952  3 O  px                63     -0.887310  2 O  s          
    35     -0.874086  1 S  dxy              118      0.855365  3 O  s          

 Vector   34  Occ=0.000000D+00  E= 4.435067D-01
              MO Center= -3.4D-01,  2.1D-01,  6.4D-01, r^2= 1.2D+01
   Bfn.  Coefficient  Atom+Function         Bfn.  Coefficient  Atom+Function  
  ----- ------------  ---------------      ----- ------------  ---------------
   184     -2.551244  4 O  px               174      2.522797  4 O  s          
   131     -1.872499  3 O  pz                76     -1.851517  2 O  pz         
    19      1.793211  1 S  px                21      1.510558  1 S  pz         
   173      1.469948  4 O  s                185      1.465072  4 O  py         
   119     -1.388689  3 O  s                 64     -1.279968  2 O  s          

 Vector   35  Occ=0.000000D+00  E= 4.557412D-01
              MO Center=  9.3D-02, -5.4D-02, -1.6D-01, r^2= 9.2D+00
   Bfn.  Coefficient  Atom+Function         Bfn.  Coefficient  Atom+Function  
  ----- ------------  ---------------      ----- ------------  ---------------
    64     -3.553136  2 O  s                119      3.548425  3 O  s          
    17      3.321872  1 S  py                20      2.451846  1 S  py         
    16      1.918603  1 S  px                19      1.416421  1 S  px         
   185     -1.220857  4 O  py                74     -1.067678  2 O  px         
    38      1.028259  1 S  dyz              130     -0.990747  3 O  py         

 Vector   36  Occ=0.000000D+00  E= 4.620838D-01
              MO Center=  1.8D-01, -1.0D-01, -1.7D-01, r^2= 8.4D+00
   Bfn.  Coefficient  Atom+Function         Bfn.  Coefficient  Atom+Function  
  ----- ------------  ---------------      ----- ------------  ---------------
   174      6.041185  4 O  s                 16     -3.446634  1 S  px         
    18     -2.937353  1 S  pz                64     -2.834852  2 O  s          
   119     -2.847568  3 O  s                 17      1.988652  1 S  py         
    19     -1.582977  1 S  px                21     -1.481835  1 S  pz         
    39     -1.227591  1 S  dzz               36     -1.121343  1 S  dxz        

 Vector   37  Occ=0.000000D+00  E= 4.762386D-01
              MO Center= -3.5D-01,  2.0D-01,  6.6D-01, r^2= 1.0D+01
   Bfn.  Coefficient  Atom+Function         Bfn.  Coefficient  Atom+Function  
  ----- ------------  ---------------      ----- ------------  ---------------
   174     -9.321590  4 O  s                  6      8.950952  1 S  s          
    64     -7.606874  2 O  s                119     -7.609671  3 O  s          
    18      3.742487  1 S  pz                34      2.859472  1 S  dxx        
    39      2.819251  1 S  dzz               37      2.764175  1 S  dyy        
   173      1.671959  4 O  s                 16     -1.646848  1 S  px         

 Vector   38  Occ=0.000000D+00  E= 5.324101D-01
              MO Center= -7.1D-02,  4.2D-02,  2.1D-02, r^2= 4.9D+00
   Bfn.  Coefficient  Atom+Function         Bfn.  Coefficient  Atom+Function  
  ----- ------------  ---------------      ----- ------------  ---------------
     5      4.487996  1 S  s                 64      3.264741  2 O  s          
   119      3.249180  3 O  s                 39     -2.325098  1 S  dzz        
    34     -2.070369  1 S  dxx               37     -1.763578  1 S  dyy        
   173     -1.647653  4 O  s                183      1.443328  4 O  pz         
    63     -1.304418  2 O  s                118     -1.304605  3 O  s          

 Vector   39  Occ=0.000000D+00  E= 5.366309D-01
              MO Center= -9.0D-01,  5.2D-01,  1.1D-01, r^2= 9.2D+00
   Bfn.  Coefficient  Atom+Function         Bfn.  Coefficient  Atom+Function  
  ----- ------------  ---------------      ----- ------------  ---------------
    64      9.166000  2 O  s                119     -9.161589  3 O  s          
    17     -6.467292  1 S  py                16     -3.737701  1 S  px         
    75     -2.830002  2 O  py               129     -2.331324  3 O  px         
    58      1.857853  1 S  fyzz              51      1.763728  1 S  fxxy       
    56      1.762670  1 S  fyyy             130     -1.620884  3 O  py         

 Vector   40  Occ=0.000000D+00  E= 5.397550D-01
              MO Center=  1.4D-01, -8.2D-02,  7.6D-01, r^2= 8.7D+00
   Bfn.  Coefficient  Atom+Function         Bfn.  Coefficient  Atom+Function  
  ----- ------------  ---------------      ----- ------------  ---------------
   174     10.888865  4 O  s                 16     -6.010087  1 S  px         
    64     -4.896816  2 O  s                119     -4.915091  3 O  s          
    18     -4.733509  1 S  pz                17      3.470233  1 S  py         
   186     -2.589680  4 O  pz               184     -1.976945  4 O  px         
    50      1.850098  1 S  fxxx              53      1.850596  1 S  fxyy       

 Vector   41  Occ=0.000000D+00  E= 5.663008D-01
              MO Center=  3.0D-02, -1.7D-02, -2.5D-01, r^2= 7.8D+00
   Bfn.  Coefficient  Atom+Function         Bfn.  Coefficient  Atom+Function  
  ----- ------------  ---------------      ----- ------------  ---------------
     6     11.708401  1 S  s                174     -4.428267  4 O  s          
    18      3.398742  1 S  pz                64     -3.276730  2 O  s          
   119     -3.277555  3 O  s                  5      3.010321  1 S  s          
    39     -2.668934  1 S  dzz               34     -2.077384  1 S  dxx        
    37     -1.971957  1 S  dyy               16     -1.581234  1 S  px         

 Vector   42  Occ=0.000000D+00  E= 6.073902D-01
              MO Center=  5.8D-01, -3.4D-01, -2.0D-03, r^2= 6.2D+00
   Bfn.  Coefficient  Atom+Function         Bfn.  Coefficient  Atom+Function  
  ----- ------------  ---------------      ----- ------------  ---------------
    63      3.440747  2 O  s                118     -3.434864  3 O  s          
    35      2.718842  1 S  dxy               51     -2.478317  1 S  fxxy       
    56     -2.482108  1 S  fyyy              34      2.367236  1 S  dxx        
    37     -2.372085  1 S  dyy               72     -2.324633  2 O  py         
   126     -2.111110  3 O  px                58     -1.799609  1 S  fyzz       

 Vector   43  Occ=0.000000D+00  E= 6.221398D-01
              MO Center=  2.0D-02, -9.5D-03, -3.5D-01, r^2= 6.6D+00
   Bfn.  Coefficient  Atom+Function         Bfn.  Coefficient  Atom+Function  
  ----- ------------  ---------------      ----- ------------  ---------------
   173      3.469592  4 O  s                 63     -2.813393  2 O  s          
   118     -2.822556  3 O  s                 37      2.638263  1 S  dyy        
    35      2.300155  1 S  dxy               39     -2.266972  1 S  dzz        
    18     -2.248063  1 S  pz                55     -2.137293  1 S  fxzz       
    36     -2.116794  1 S  dxz                5      1.968667  1 S  s          

 Vector   44  Occ=0.000000D+00  E= 6.382224D-01
              MO Center= -4.3D-01,  2.5D-01,  2.3D-01, r^2= 6.5D+00
   Bfn.  Coefficient  Atom+Function         Bfn.  Coefficient  Atom+Function  
  ----- ------------  ---------------      ----- ------------  ---------------
     5      9.346408  1 S  s                173     -4.472803  4 O  s          
    36      3.636815  1 S  dxz               18     -2.615056  1 S  pz         
    64     -2.621221  2 O  s                119     -2.617266  3 O  s          
    59      2.599257  1 S  fzzz             174     -2.513785  4 O  s          
   183      2.494824  4 O  pz                52      2.427308  1 S  fxxz       

 Vector   45  Occ=0.000000D+00  E= 6.514714D-01
              MO Center=  4.3D-01, -2.5D-01, -2.8D-01, r^2= 7.0D+00
   Bfn.  Coefficient  Atom+Function         Bfn.  Coefficient  Atom+Function  
  ----- ------------  ---------------      ----- ------------  ---------------
    16      5.422648  1 S  px                35     -5.348583  1 S  dxy        
   174     -5.293327  4 O  s                 17     -3.128165  1 S  py         
    36      2.810950  1 S  dxz              119      2.604546  3 O  s          
    64      2.590335  2 O  s                  5      2.354732  1 S  s          
    18      2.294260  1 S  pz                50     -2.124027  1 S  fxxx       

 Vector   46  Occ=0.000000D+00  E= 6.546096D-01
              MO Center=  1.4D-01, -8.2D-02, -6.3D-01, r^2= 6.8D+00
   Bfn.  Coefficient  Atom+Function         Bfn.  Coefficient  Atom+Function  
  ----- ------------  ---------------      ----- ------------  ---------------
    38     -5.103267  1 S  dyz               17      4.729937  1 S  py         
    64     -4.225346  2 O  s                119      4.217327  3 O  s          
    36     -2.964441  1 S  dxz               16      2.725063  1 S  px         
    58     -2.683795  1 S  fyzz              35     -2.237995  1 S  dxy        
   182      1.988110  4 O  py                34     -1.958004  1 S  dxx        

 Vector   47  Occ=0.000000D+00  E= 6.837504D-01
              MO Center= -2.4D-01,  1.4D-01,  7.8D-01, r^2= 8.2D+00
   Bfn.  Coefficient  Atom+Function         Bfn.  Coefficient  Atom+Function  
  ----- ------------  ---------------      ----- ------------  ---------------
   174    -10.621719  4 O  s                  5     10.475943  1 S  s          
    18     10.051562  1 S  pz                64     -7.498026  2 O  s          
   119     -7.507117  3 O  s                 37      6.345642  1 S  dyy        
    34      6.284647  1 S  dxx               39      5.433775  1 S  dzz        
    16     -3.198334  1 S  px                57     -2.990340  1 S  fyyz       

 Vector   48  Occ=0.000000D+00  E= 7.226930D-01
              MO Center= -3.2D-01,  1.9D-01,  5.9D-01, r^2= 8.0D+00
   Bfn.  Coefficient  Atom+Function         Bfn.  Coefficient  Atom+Function  
  ----- ------------  ---------------      ----- ------------  ---------------
    17     14.605807  1 S  py                16      8.441697  1 S  px         
    64     -6.664016  2 O  s                119      6.652248  3 O  s          
    51     -3.061664  1 S  fxxy              56     -3.060927  1 S  fyyy       
    58     -2.755880  1 S  fyzz              35     -2.624833  1 S  dxy        
    38      2.604483  1 S  dyz               34     -2.281968  1 S  dxx        

 Vector   49  Occ=0.000000D+00  E= 7.312051D-01
              MO Center= -6.0D-01,  3.5D-01,  3.5D-01, r^2= 7.7D+00
   Bfn.  Coefficient  Atom+Function         Bfn.  Coefficient  Atom+Function  
  ----- ------------  ---------------      ----- ------------  ---------------
    16     12.620916  1 S  px                18      9.316989  1 S  pz         
    17     -7.291552  1 S  py               174     -6.798602  4 O  s          
    64      4.599862  2 O  s                119      4.610633  3 O  s          
    55     -2.997841  1 S  fxzz              39      2.642786  1 S  dzz        
    34     -2.453997  1 S  dxx               50     -2.438221  1 S  fxxx       

 Vector   50  Occ=0.000000D+00  E= 8.250850D-01
              MO Center= -8.3D-02,  4.8D-02,  2.3D-01, r^2= 5.0D+00
   Bfn.  Coefficient  Atom+Function         Bfn.  Coefficient  Atom+Function  
  ----- ------------  ---------------      ----- ------------  ---------------
     5      3.354206  1 S  s                 35      2.706145  1 S  dxy        
   174      2.545044  4 O  s                173     -2.144181  4 O  s          
    51     -2.005034  1 S  fxxy              18     -1.903358  1 S  pz         
   183      1.912573  4 O  pz                57      1.902018  1 S  fyyz       
    59      1.890141  1 S  fzzz             181      1.626945  4 O  px         

 Vector   51  Occ=0.000000D+00  E= 8.265851D-01
              MO Center= -1.2D-01,  6.7D-02,  1.2D-01, r^2= 5.1D+00
   Bfn.  Coefficient  Atom+Function         Bfn.  Coefficient  Atom+Function  
  ----- ------------  ---------------      ----- ------------  ---------------
    58      3.340849  1 S  fyzz              38      3.097789  1 S  dyz        
    17     -2.252509  1 S  py                64      1.985797  2 O  s          
   119     -1.987487  3 O  s                 55      1.934456  1 S  fxzz       
    51      1.898679  1 S  fxxy              56      1.897268  1 S  fyyy       
    36      1.792420  1 S  dxz              126      1.542768  3 O  px         

 Vector   52  Occ=0.000000D+00  E= 8.576374D-01
              MO Center= -2.4D-02,  1.4D-02,  1.4D-01, r^2= 6.4D+00
   Bfn.  Coefficient  Atom+Function         Bfn.  Coefficient  Atom+Function  
  ----- ------------  ---------------      ----- ------------  ---------------
     5     19.635824  1 S  s                173     -6.156109  4 O  s          
    63     -5.249043  2 O  s                118     -5.250126  3 O  s          
   174      4.999326  4 O  s                 64      4.695218  2 O  s          
   119      4.694895  3 O  s                 39     -4.651967  1 S  dzz        
    18     -4.521517  1 S  pz                72      4.228243  2 O  py         

 Vector   53  Occ=0.000000D+00  E= 8.964465D-01
              MO Center= -8.6D-03,  5.3D-03, -1.7D-01, r^2= 5.3D+00
   Bfn.  Coefficient  Atom+Function         Bfn.  Coefficient  Atom+Function  
  ----- ------------  ---------------      ----- ------------  ---------------
    37      2.410802  1 S  dyy              174     -2.373113  4 O  s          
    34      2.091125  1 S  dxx               64     -2.021952  2 O  s          
   119     -2.021840  3 O  s                 36      1.890159  1 S  dxz        
     5      1.659747  1 S  s                 39      1.442868  1 S  dzz        
    38     -1.093985  1 S  dyz               91     -1.044268  2 O  dxz        

 Vector   54  Occ=0.000000D+00  E= 9.198602D-01
              MO Center= -2.1D-01,  1.2D-01,  5.6D-01, r^2= 6.0D+00
   Bfn.  Coefficient  Atom+Function         Bfn.  Coefficient  Atom+Function  
  ----- ------------  ---------------      ----- ------------  ---------------
    17      4.158571  1 S  py                64     -3.336935  2 O  s          
   119      3.339440  3 O  s                 51     -2.981977  1 S  fxxy       
    56     -2.984493  1 S  fyyy              63      2.931248  2 O  s          
   118     -2.931191  3 O  s                 16      2.406248  1 S  px         
    92      2.069309  2 O  dyy               58     -1.894195  1 S  fyzz       

 Vector   55  Occ=0.000000D+00  E= 9.320369D-01
              MO Center= -3.0D-01,  1.7D-01,  5.3D-01, r^2= 6.0D+00
   Bfn.  Coefficient  Atom+Function         Bfn.  Coefficient  Atom+Function  
  ----- ------------  ---------------      ----- ------------  ---------------
   174      5.060504  4 O  s                173     -3.847587  4 O  s          
    16     -3.284143  1 S  px                18     -3.268686  1 S  pz         
    55      2.536890  1 S  fxzz              59      2.219312  1 S  fzzz       
    50      2.121285  1 S  fxxx              53      2.119039  1 S  fxyy       
    17      1.900104  1 S  py               181      1.747250  4 O  px         

 Vector   56  Occ=0.000000D+00  E= 9.650770D-01
              MO Center= -3.4D-01,  2.0D-01,  6.6D-01, r^2= 7.4D+00
   Bfn.  Coefficient  Atom+Function         Bfn.  Coefficient  Atom+Function  
  ----- ------------  ---------------      ----- ------------  ---------------
   203      1.322226  4 O  dyz              185     -1.131356  4 O  py         
    58      1.055872  1 S  fyzz              90     -1.002658  2 O  dxy        
   119     -0.951187  3 O  s                 54      0.945617  1 S  fxyz       
    64      0.946936  2 O  s                 93     -0.949800  2 O  dyz        
    17     -0.940112  1 S  py               145      0.908063  3 O  dxy        

 Vector   57  Occ=0.000000D+00  E= 9.713571D-01
              MO Center= -1.1D-01,  6.2D-02,  3.5D-01, r^2= 7.0D+00
   Bfn.  Coefficient  Atom+Function         Bfn.  Coefficient  Atom+Function  
  ----- ------------  ---------------      ----- ------------  ---------------
     5      5.110010  1 S  s                  6     -4.352623  1 S  s          
    64      2.924002  2 O  s                119      2.923680  3 O  s          
   174      2.635007  4 O  s                173     -1.760313  4 O  s          
    63     -1.733167  2 O  s                118     -1.733518  3 O  s          
    18     -1.442628  1 S  pz                57      1.440840  1 S  fyyz       

 Vector   58  Occ=0.000000D+00  E= 9.848264D-01
              MO Center=  2.3D-01, -1.3D-01,  2.4D-01, r^2= 7.9D+00
   Bfn.  Coefficient  Atom+Function         Bfn.  Coefficient  Atom+Function  
  ----- ------------  ---------------      ----- ------------  ---------------
   174      5.093939  4 O  s                 18     -3.295799  1 S  pz         
    16     -3.112090  1 S  px                17      1.782444  1 S  py         
    39     -1.620825  1 S  dzz              119     -1.517323  3 O  s          
    64     -1.489510  2 O  s                181     -1.441691  4 O  px         
    19     -1.408823  1 S  px                21     -1.281774  1 S  pz         

 Vector   59  Occ=0.000000D+00  E= 9.852658D-01
              MO Center= -2.8D-01,  1.6D-01, -4.2D-02, r^2= 6.7D+00
   Bfn.  Coefficient  Atom+Function         Bfn.  Coefficient  Atom+Function  
  ----- ------------  ---------------      ----- ------------  ---------------
    17      3.175486  1 S  py                64     -2.917959  2 O  s          
   119      2.921460  3 O  s                 16      1.834137  1 S  px         
    20      1.288251  1 S  py               127      1.255087  3 O  py         
    71      1.185528  2 O  px               182     -0.929505  4 O  py         
    74     -0.916814  2 O  px               203      0.920700  4 O  dyz        

 Vector   60  Occ=0.000000D+00  E= 9.870716D-01
              MO Center= -4.5D-01,  2.6D-01,  1.1D-01, r^2= 6.5D+00
   Bfn.  Coefficient  Atom+Function         Bfn.  Coefficient  Atom+Function  
  ----- ------------  ---------------      ----- ------------  ---------------
    53      1.526151  1 S  fxyy             145     -1.363117  3 O  dxy        
    90      1.322537  2 O  dxy               20      1.152774  1 S  py         
    73     -1.146643  2 O  pz               128      1.149196  3 O  pz         
   185     -0.889725  4 O  py               130     -0.879300  3 O  py         
    17      0.858323  1 S  py                38      0.749616  1 S  dyz        

 Vector   61  Occ=0.000000D+00  E= 9.886312D-01
              MO Center= -8.4D-02,  5.0D-02,  1.1D+00, r^2= 6.8D+00
   Bfn.  Coefficient  Atom+Function         Bfn.  Coefficient  Atom+Function  
  ----- ------------  ---------------      ----- ------------  ---------------
   174      9.867145  4 O  s                 16     -5.274562  1 S  px         
    18     -4.556933  1 S  pz                64     -4.048418  2 O  s          
   119     -4.048715  3 O  s                 17      3.052814  1 S  py         
    57      2.607387  1 S  fyyz              52      2.589837  1 S  fxxz       
    50      2.264675  1 S  fxxx              53      2.257750  1 S  fxyy       

 Vector   62  Occ=0.000000D+00  E= 9.976458D-01
              MO Center= -1.0D+00,  5.9D-01,  5.3D-02, r^2= 6.4D+00
   Bfn.  Coefficient  Atom+Function         Bfn.  Coefficient  Atom+Function  
  ----- ------------  ---------------      ----- ------------  ---------------
    64      7.442161  2 O  s                119     -7.441452  3 O  s          
    17     -5.450079  1 S  py                16     -3.152663  1 S  px         
    58      2.013545  1 S  fyzz              51      1.843276  1 S  fxxy       
    56      1.842388  1 S  fyyy              75     -1.610598  2 O  py         
   144      1.571840  3 O  dxx               92     -1.310447  2 O  dyy        

 Vector   63  Occ=0.000000D+00  E= 1.016905D+00
              MO Center= -1.0D-01,  5.8D-02,  6.7D-01, r^2= 4.7D+00
   Bfn.  Coefficient  Atom+Function         Bfn.  Coefficient  Atom+Function  
  ----- ------------  ---------------      ----- ------------  ---------------
    64      2.735719  2 O  s                119      2.737375  3 O  s          
    16      2.157220  1 S  px               174     -1.492448  4 O  s          
    37     -1.443686  1 S  dyy                5      1.362491  1 S  s          
    17     -1.247777  1 S  py               173     -1.217872  4 O  s          
    34     -1.096390  1 S  dxx              201     -0.927637  4 O  dxz        

 Vector   64  Occ=0.000000D+00  E= 1.023219D+00
              MO Center= -5.8D-01,  3.4D-01,  2.8D-01, r^2= 4.7D+00
   Bfn.  Coefficient  Atom+Function         Bfn.  Coefficient  Atom+Function  
  ----- ------------  ---------------      ----- ------------  ---------------
    64      2.852666  2 O  s                119     -2.837460  3 O  s          
    17     -1.908820  1 S  py                91      1.190040  2 O  dxz        
    16     -1.099764  1 S  px               148      1.094480  3 O  dyz        
    35      0.844826  1 S  dxy               26     -0.752996  1 S  dyz        
    37     -0.742696  1 S  dyy               34      0.733813  1 S  dxx        

 Vector   65  Occ=0.000000D+00  E= 1.037232D+00
              MO Center= -2.7D-01,  1.6D-01,  3.5D-03, r^2= 6.3D+00
   Bfn.  Coefficient  Atom+Function         Bfn.  Coefficient  Atom+Function  
  ----- ------------  ---------------      ----- ------------  ---------------
    64      5.020869  2 O  s                119      5.024854  3 O  s          
    16      3.799242  1 S  px                 6     -3.536397  1 S  s          
    35     -3.549725  1 S  dxy               37     -3.426355  1 S  dyy        
     5      2.532053  1 S  s                 17     -2.197310  1 S  py         
   174      2.124234  4 O  s                127     -1.956327  3 O  py         

 Vector   66  Occ=0.000000D+00  E= 1.044182D+00
              MO Center= -6.7D-02,  4.0D-02,  9.4D-03, r^2= 5.8D+00
   Bfn.  Coefficient  Atom+Function         Bfn.  Coefficient  Atom+Function  
  ----- ------------  ---------------      ----- ------------  ---------------
    17      3.488447  1 S  py                38     -2.852433  1 S  dyz        
   182      2.252859  4 O  py                16      2.022156  1 S  px         
    64     -1.970928  2 O  s                 35     -1.949008  1 S  dxy        
   119      1.941594  3 O  s                 58     -1.821713  1 S  fyzz       
    37      1.701967  1 S  dyy               34     -1.684002  1 S  dxx        

 Vector   67  Occ=0.000000D+00  E= 1.048319D+00
              MO Center= -2.0D-01,  1.2D-01,  3.4D-01, r^2= 6.5D+00
   Bfn.  Coefficient  Atom+Function         Bfn.  Coefficient  Atom+Function  
  ----- ------------  ---------------      ----- ------------  ---------------
   174      9.112712  4 O  s                  6     -6.586525  1 S  s          
    64      6.077160  2 O  s                119      6.089214  3 O  s          
    18     -4.688773  1 S  pz                34     -3.710198  1 S  dxx        
    36     -3.165379  1 S  dxz               37     -2.959807  1 S  dyy        
    39     -2.594293  1 S  dzz               57      2.159064  1 S  fyyz       

 Vector   68  Occ=0.000000D+00  E= 1.092555D+00
              MO Center= -4.6D-01,  2.7D-01,  6.6D-01, r^2= 6.0D+00
   Bfn.  Coefficient  Atom+Function         Bfn.  Coefficient  Atom+Function  
  ----- ------------  ---------------      ----- ------------  ---------------
     6      6.655117  1 S  s                 34     -6.355469  1 S  dxx        
    37     -6.338447  1 S  dyy               18     -5.809689  1 S  pz         
    39     -5.836454  1 S  dzz              174      3.078954  4 O  s          
     5      2.163677  1 S  s                 57      2.074612  1 S  fyyz       
    59      1.944284  1 S  fzzz              16      1.891527  1 S  px         

 Vector   69  Occ=0.000000D+00  E= 1.114623D+00
              MO Center=  2.0D-01, -1.1D-01, -7.2D-02, r^2= 4.3D+00
   Bfn.  Coefficient  Atom+Function         Bfn.  Coefficient  Atom+Function  
  ----- ------------  ---------------      ----- ------------  ---------------
    51      3.847557  1 S  fxxy              56      3.853319  1 S  fyyy       
    63     -3.075904  2 O  s                118      3.076549  3 O  s          
    50      2.675799  1 S  fxxx              72      2.564367  2 O  py         
   126      2.437546  3 O  px                17     -2.245968  1 S  py         
    58      1.858706  1 S  fyzz              35     -1.383827  1 S  dxy        

 Vector   70  Occ=0.000000D+00  E= 1.138895D+00
              MO Center=  2.5D-02, -1.4D-02, -2.9D-01, r^2= 4.3D+00
   Bfn.  Coefficient  Atom+Function         Bfn.  Coefficient  Atom+Function  
  ----- ------------  ---------------      ----- ------------  ---------------
   173      5.208184  4 O  s                 55     -4.354721  1 S  fxzz       
   183     -3.396577  4 O  pz                50     -2.802809  1 S  fxxx       
    53     -2.795812  1 S  fxyy              58      2.520265  1 S  fyzz       
    36     -2.401068  1 S  dxz               59     -2.365992  1 S  fzzz       
    54      2.117825  1 S  fxyz              56      2.032555  1 S  fyyy       

 Vector   71  Occ=0.000000D+00  E= 1.173184D+00
              MO Center=  1.2D-01, -6.8D-02, -3.2D-01, r^2= 5.5D+00
   Bfn.  Coefficient  Atom+Function         Bfn.  Coefficient  Atom+Function  
  ----- ------------  ---------------      ----- ------------  ---------------
    16      9.506678  1 S  px                 6     -5.744714  1 S  s          
    50     -5.638738  1 S  fxxx              53     -5.629975  1 S  fxyy       
    17     -5.551550  1 S  py                56      3.839967  1 S  fyyy       
   173     -3.325172  4 O  s                 64      3.261216  2 O  s          
    63     -3.233448  2 O  s                118     -3.238929  3 O  s          

 Vector   72  Occ=0.000000D+00  E= 1.181550D+00
              MO Center= -3.3D-01,  1.9D-01,  4.0D-01, r^2= 6.1D+00
   Bfn.  Coefficient  Atom+Function         Bfn.  Coefficient  Atom+Function  
  ----- ------------  ---------------      ----- ------------  ---------------
    17     15.825880  1 S  py                16      9.185279  1 S  px         
    58     -5.300682  1 S  fyzz              64     -5.056372  2 O  s          
   119      5.074935  3 O  s                 51     -4.537844  1 S  fxxy       
    56     -4.531856  1 S  fyyy              35     -3.787087  1 S  dxy        
    34     -3.297396  1 S  dxx               37      3.297064  1 S  dyy        

 Vector   73  Occ=0.000000D+00  E= 1.197243D+00
              MO Center= -1.3D-01,  7.6D-02,  3.4D-01, r^2= 5.9D+00
   Bfn.  Coefficient  Atom+Function         Bfn.  Coefficient  Atom+Function  
  ----- ------------  ---------------      ----- ------------  ---------------
    18     14.469159  1 S  pz                16     10.607596  1 S  px         
   174     -8.494412  4 O  s                 17     -6.125721  1 S  py         
    59     -5.847084  1 S  fzzz              52     -5.784688  1 S  fxxz       
    57     -5.738460  1 S  fyyz              39      3.799406  1 S  dzz        
    36      3.505843  1 S  dxz                6      2.855880  1 S  s          

 Vector   74  Occ=0.000000D+00  E= 1.282706D+00
              MO Center= -1.4D-01,  8.5D-02,  3.6D-01, r^2= 4.8D+00
   Bfn.  Coefficient  Atom+Function         Bfn.  Coefficient  Atom+Function  
  ----- ------------  ---------------      ----- ------------  ---------------
    18      9.156432  1 S  pz               174     -7.873150  4 O  s          
   119     -5.171777  3 O  s                 64     -5.112774  2 O  s          
    39      4.873779  1 S  dzz               37      4.810137  1 S  dyy        
    34      4.694794  1 S  dxx               55      3.412176  1 S  fxzz       
    52     -3.330714  1 S  fxxz              51     -3.260981  1 S  fxxy       

 Vector   75  Occ=0.000000D+00  E= 1.283015D+00
              MO Center= -3.2D-01,  1.8D-01,  4.9D-02, r^2= 4.6D+00
   Bfn.  Coefficient  Atom+Function         Bfn.  Coefficient  Atom+Function  
  ----- ------------  ---------------      ----- ------------  ---------------
    17      7.254136  1 S  py                16      4.194765  1 S  px         
   126      3.264493  3 O  px                63     -2.993130  2 O  s          
   118      2.995519  3 O  s                 72      2.752973  2 O  py         
    64     -2.581045  2 O  s                119      2.473543  3 O  s          
    35     -2.128632  1 S  dxy               37      1.907522  1 S  dyy        

 Vector   76  Occ=0.000000D+00  E= 1.286698D+00
              MO Center= -9.0D-02,  5.3D-02,  3.2D-01, r^2= 4.9D+00
   Bfn.  Coefficient  Atom+Function         Bfn.  Coefficient  Atom+Function  
  ----- ------------  ---------------      ----- ------------  ---------------
    16     10.625694  1 S  px                17     -6.159489  1 S  py         
    64      5.243637  2 O  s                119      5.240776  3 O  s          
   183      4.953054  4 O  pz               173     -4.180635  4 O  s          
    37     -4.071758  1 S  dyy               34     -3.493710  1 S  dxx        
    55     -3.418906  1 S  fxzz             204     -3.329885  4 O  dzz        

 Vector   77  Occ=0.000000D+00  E= 1.307848D+00
              MO Center=  1.8D-02, -1.1D-02,  1.6D-02, r^2= 4.7D+00
   Bfn.  Coefficient  Atom+Function         Bfn.  Coefficient  Atom+Function  
  ----- ------------  ---------------      ----- ------------  ---------------
    16      8.670255  1 S  px                18      7.133080  1 S  pz         
   174     -7.127973  4 O  s                 17     -5.009330  1 S  py         
    51      4.446559  1 S  fxxy              50     -4.320673  1 S  fxxx       
    53     -4.330497  1 S  fxyy              57     -4.341547  1 S  fyyz       
    59     -3.414134  1 S  fzzz              54     -3.076460  1 S  fxyz       

 Vector   78  Occ=0.000000D+00  E= 1.311966D+00
              MO Center= -9.3D-02,  5.4D-02,  2.4D-03, r^2= 4.9D+00
   Bfn.  Coefficient  Atom+Function         Bfn.  Coefficient  Atom+Function  
  ----- ------------  ---------------      ----- ------------  ---------------
    17     12.596897  1 S  py                58     -7.792261  1 S  fyzz       
    16      7.280195  1 S  px                64     -6.600758  2 O  s          
   119      6.594546  3 O  s                 51     -4.545785  1 S  fxxy       
    56     -4.539110  1 S  fyyy              55     -4.507468  1 S  fxzz       
    53     -3.725399  1 S  fxyy              50     -2.256471  1 S  fxxx       

 Vector   79  Occ=0.000000D+00  E= 1.353985D+00
              MO Center=  2.5D-02, -1.5D-02, -1.8D-02, r^2= 4.9D+00
   Bfn.  Coefficient  Atom+Function         Bfn.  Coefficient  Atom+Function  
  ----- ------------  ---------------      ----- ------------  ---------------
   127      4.982445  3 O  py                35      4.602873  1 S  dxy        
    71     -4.339903  2 O  px                23      4.071412  1 S  dxy        
   173     -3.718155  4 O  s                181      3.481277  4 O  px         
    51     -3.401292  1 S  fxxy              90      3.260059  2 O  dxy        
    50      3.001519  1 S  fxxx              53      3.009424  1 S  fxyy       

 Vector   80  Occ=0.000000D+00  E= 1.361130D+00
              MO Center=  2.2D-02, -1.3D-02, -3.9D-02, r^2= 4.9D+00
   Bfn.  Coefficient  Atom+Function         Bfn.  Coefficient  Atom+Function  
  ----- ------------  ---------------      ----- ------------  ---------------
    38      5.428263  1 S  dyz               58      4.755238  1 S  fyzz       
    26      4.660687  1 S  dyz              182     -4.673313  4 O  py         
    73     -3.524365  2 O  pz               128      3.522951  3 O  pz         
    63     -3.196650  2 O  s                118      3.192547  3 O  s          
    36      3.139974  1 S  dxz              126      2.843232  3 O  px         

 Vector   81  Occ=0.000000D+00  E= 1.371771D+00
              MO Center= -8.4D-02,  4.9D-02,  2.9D-01, r^2= 4.8D+00
   Bfn.  Coefficient  Atom+Function         Bfn.  Coefficient  Atom+Function  
  ----- ------------  ---------------      ----- ------------  ---------------
     5      8.664508  1 S  s                 36      3.225728  1 S  dxz        
   183      3.220294  4 O  pz                24      3.091518  1 S  dxz        
    73      2.997433  2 O  pz               128      3.002088  3 O  pz         
   181     -2.947857  4 O  px                93     -2.464092  2 O  dyz        
    27     -2.443950  1 S  dzz               51     -2.134462  1 S  fxxy       

 Vector   82  Occ=0.000000D+00  E= 1.375847D+00
              MO Center= -2.7D-01,  1.5D-01,  4.6D-01, r^2= 4.7D+00
   Bfn.  Coefficient  Atom+Function         Bfn.  Coefficient  Atom+Function  
  ----- ------------  ---------------      ----- ------------  ---------------
   182      2.902855  4 O  py                90      1.802122  2 O  dxy        
   203     -1.775734  4 O  dyz               71     -1.734002  2 O  px         
   181      1.681541  4 O  px               127     -1.602817  3 O  py         
    73     -1.454546  2 O  pz               128      1.456285  3 O  pz         
   146      1.419048  3 O  dxz               93      1.335666  2 O  dyz        

 Vector   83  Occ=0.000000D+00  E= 1.392168D+00
              MO Center= -2.3D-02,  1.3D-02,  1.4D-02, r^2= 4.2D+00
   Bfn.  Coefficient  Atom+Function         Bfn.  Coefficient  Atom+Function  
  ----- ------------  ---------------      ----- ------------  ---------------
    54      6.751979  1 S  fxyz               5     -4.946148  1 S  s          
    57      3.801970  1 S  fyyz              51      3.739106  1 S  fxxy       
    63      1.771594  2 O  s                118      1.768823  3 O  s          
     6     -1.737899  1 S  s                 91     -1.495849  2 O  dxz        
    24     -1.433697  1 S  dxz              146     -1.371984  3 O  dxz        

 Vector   84  Occ=0.000000D+00  E= 1.447720D+00
              MO Center=  3.8D-02, -2.2D-02,  4.3D-02, r^2= 4.3D+00
   Bfn.  Coefficient  Atom+Function         Bfn.  Coefficient  Atom+Function  
  ----- ------------  ---------------      ----- ------------  ---------------
    17      7.748985  1 S  py                16      4.483654  1 S  px         
   182     -4.255337  4 O  py                23      3.878357  1 S  dxy        
   127     -3.500897  3 O  py                22      3.377873  1 S  dxx        
    25     -3.380750  1 S  dyy               63      3.343441  2 O  s          
   118     -3.343489  3 O  s                 51     -3.322384  1 S  fxxy       

 Vector   85  Occ=0.000000D+00  E= 1.465574D+00
              MO Center= -1.4D-01,  8.4D-02, -1.7D-02, r^2= 5.1D+00
   Bfn.  Coefficient  Atom+Function         Bfn.  Coefficient  Atom+Function  
  ----- ------------  ---------------      ----- ------------  ---------------
     5      8.005822  1 S  s                 52      6.412911  1 S  fxxz       
    57      6.403119  1 S  fyyz              16      4.848608  1 S  px         
    73     -4.518034  2 O  pz               128     -4.519130  3 O  pz         
   126     -3.897467  3 O  px                93      3.705240  2 O  dyz        
   183      3.533077  4 O  pz                18      3.406838  1 S  pz         

 Vector   86  Occ=0.000000D+00  E= 1.480334D+00
              MO Center= -8.5D-02,  4.9D-02,  5.1D-02, r^2= 4.5D+00
   Bfn.  Coefficient  Atom+Function         Bfn.  Coefficient  Atom+Function  
  ----- ------------  ---------------      ----- ------------  ---------------
    53      8.575596  1 S  fxyy              51      7.080859  1 S  fxxy       
    56      7.058638  1 S  fyyy              63     -4.687594  2 O  s          
   118      4.696337  3 O  s                 71     -4.639422  2 O  px         
    58      3.812214  1 S  fyzz             126      3.783202  3 O  px         
    90      3.698526  2 O  dxy               17     -3.607006  1 S  py         

 Vector   87  Occ=0.000000D+00  E= 1.510949D+00
              MO Center= -8.2D-02,  4.8D-02, -3.6D-02, r^2= 3.4D+00
   Bfn.  Coefficient  Atom+Function         Bfn.  Coefficient  Atom+Function  
  ----- ------------  ---------------      ----- ------------  ---------------
     5     16.384121  1 S  s                173    -11.128036  4 O  s          
    52      8.124514  1 S  fxxz              18     -6.806619  1 S  pz         
    55      6.476961  1 S  fxzz              57      6.146528  1 S  fyyz       
    16     -6.049526  1 S  px                59      5.673087  1 S  fzzz       
   183      5.395445  4 O  pz               174      4.699080  4 O  s          

 Vector   88  Occ=0.000000D+00  E= 1.522918D+00
              MO Center= -2.0D-01,  1.2D-01,  3.3D-01, r^2= 5.1D+00
   Bfn.  Coefficient  Atom+Function         Bfn.  Coefficient  Atom+Function  
  ----- ------------  ---------------      ----- ------------  ---------------
     5     58.254068  1 S  s                 72     16.084256  2 O  py         
    63    -14.254051  2 O  s                118    -14.254197  3 O  s          
   126    -14.186650  3 O  px               173    -13.164625  4 O  s          
   181     11.181741  4 O  px               183     10.344631  4 O  pz         
    59      7.749979  1 S  fzzz              92     -7.646732  2 O  dyy        

 Vector   89  Occ=0.000000D+00  E= 1.532501D+00
              MO Center=  3.2D-02, -1.8D-02, -6.0D-02, r^2= 4.5D+00
   Bfn.  Coefficient  Atom+Function         Bfn.  Coefficient  Atom+Function  
  ----- ------------  ---------------      ----- ------------  ---------------
    53      7.445974  1 S  fxyy              54     -6.326517  1 S  fxyz       
    52     -5.527887  1 S  fxxz              57      5.514140  1 S  fyyz       
   182      4.680028  4 O  py                58     -4.049447  1 S  fyzz       
   203     -3.874464  4 O  dyz               50     -3.529092  1 S  fxxx       
    71     -3.130117  2 O  px                73     -2.782593  2 O  pz         

 Vector   90  Occ=0.000000D+00  E= 1.668703D+00
              MO Center= -4.1D-01,  2.4D-01,  1.9D-02, r^2= 4.5D+00
   Bfn.  Coefficient  Atom+Function         Bfn.  Coefficient  Atom+Function  
  ----- ------------  ---------------      ----- ------------  ---------------
    72     14.642093  2 O  py               126     14.212675  3 O  px         
    58     12.699864  1 S  fyzz              51      8.385009  1 S  fxxy       
    56      8.343660  1 S  fyyy              53      8.096830  1 S  fxyy       
    17     -7.393384  1 S  py                92     -7.426148  2 O  dyy        
    55      7.321875  1 S  fxzz             144      7.060475  3 O  dxx        

 Vector   91  Occ=0.000000D+00  E= 1.677612D+00
              MO Center= -7.7D-02,  4.1D-02,  3.3D-01, r^2= 4.6D+00
   Bfn.  Coefficient  Atom+Function         Bfn.  Coefficient  Atom+Function  
  ----- ------------  ---------------      ----- ------------  ---------------
   183     17.806240  4 O  pz                 5     17.688715  1 S  s          
   173    -14.746299  4 O  s                 57     13.536477  1 S  fyyz       
    52     12.696586  1 S  fxxz             181      9.956997  4 O  px         
    51     -8.394596  1 S  fxxy             204     -8.014834  4 O  dzz        
    59      7.441106  1 S  fzzz              18     -7.020546  1 S  pz         

 Vector   92  Occ=0.000000D+00  E= 1.727531D+00
              MO Center=  6.4D-02, -3.7D-02,  1.8D-01, r^2= 4.0D+00
   Bfn.  Coefficient  Atom+Function         Bfn.  Coefficient  Atom+Function  
  ----- ------------  ---------------      ----- ------------  ---------------
[...]
    68     10.670435  2 O  px               179      8.897800  4 O  py         
   178      6.241365  4 O  px                70      5.844775  2 O  pz         
    98     -5.425600  2 O  fxyy              95     -5.395441  2 O  fxxx       
   100     -5.385103  2 O  fxzz              16     -4.870646  1 S  px         
    10      4.696711  1 S  px               213     -4.590016  4 O  fyzz       

 Vector  218  Occ=0.000000D+00  E= 1.491878D+01
              MO Center= -2.9D-01,  1.7D-01,  4.1D-01, r^2= 4.0D+00
   Bfn.  Coefficient  Atom+Function         Bfn.  Coefficient  Atom+Function  
  ----- ------------  ---------------      ----- ------------  ---------------
     5     25.203683  1 S  s                  3    -19.032573  1 S  s          
     2    -13.340918  1 S  s                 72      6.988914  2 O  py         
   126     -5.916594  3 O  px                69      5.654853  2 O  py         
    61     -4.881833  2 O  s                116     -4.877181  3 O  s          
   171     -4.881862  4 O  s                181      4.812226  4 O  px         

 Vector  219  Occ=0.000000D+00  E= 1.572377D+01
              MO Center= -2.5D-01,  1.4D-01,  3.4D-01, r^2= 3.2D+00
   Bfn.  Coefficient  Atom+Function         Bfn.  Coefficient  Atom+Function  
  ----- ------------  ---------------      ----- ------------  ---------------
     3     21.090571  1 S  s                  2     14.813426  1 S  s          
    69      8.001219  2 O  py               123     -7.719707  3 O  px         
   180      7.363090  4 O  pz                 5      5.578621  1 S  s          
    72      4.732556  2 O  py               126     -4.671098  3 O  px         
   183      4.581139  4 O  pz                 4     -4.499369  1 S  s          

 Vector  220  Occ=0.000000D+00  E= 1.598349D+01
              MO Center= -8.5D-01, -2.2D-01,  1.8D-01, r^2= 3.0D+00
   Bfn.  Coefficient  Atom+Function         Bfn.  Coefficient  Atom+Function  
  ----- ------------  ---------------      ----- ------------  ---------------
   123     12.397417  3 O  px               126     10.640063  3 O  px         
    69      6.991399  2 O  py               150     -6.372655  3 O  fxxx       
   155     -6.400426  3 O  fxzz             153     -6.336256  3 O  fxyy       
   124      6.096027  3 O  py                16      6.047007  1 S  px         
    72      5.828996  2 O  py               165     -5.418442  3 O  fxzz       

 Vector  221  Occ=0.000000D+00  E= 1.598430D+01
              MO Center=  3.0D-01,  5.5D-01,  6.1D-01, r^2= 3.0D+00
   Bfn.  Coefficient  Atom+Function         Bfn.  Coefficient  Atom+Function  
  ----- ------------  ---------------      ----- ------------  ---------------
    69     11.948696  2 O  py                72     10.118915  2 O  py         
   180     -9.413285  4 O  pz               183     -8.315422  4 O  pz         
   178     -6.699518  4 O  px                96     -6.154374  2 O  fxxy       
   101     -6.125237  2 O  fyyy             103     -6.152142  2 O  fyzz       
    17      6.037620  1 S  py               181     -5.468758  4 O  px         

 Vector  222  Occ=0.000000D+00  E= 1.720178D+01
              MO Center=  3.2D-01,  3.5D-01,  6.8D-01, r^2= 2.0D+00
   Bfn.  Coefficient  Atom+Function         Bfn.  Coefficient  Atom+Function  
  ----- ------------  ---------------      ----- ------------  ---------------
   173      8.408498  4 O  s                 63     -7.023645  2 O  s          
   171      5.427266  4 O  s                 61     -4.533393  2 O  s          
   198     -3.936674  4 O  dzz              193     -3.899229  4 O  dxx        
   196     -3.910413  4 O  dyy               86      3.310471  2 O  dyy        
    88      3.262165  2 O  dzz               83      3.238781  2 O  dxx        

 Vector  223  Occ=0.000000D+00  E= 1.720182D+01
              MO Center= -8.8D-01, -3.5D-02,  9.4D-02, r^2= 2.0D+00
   Bfn.  Coefficient  Atom+Function         Bfn.  Coefficient  Atom+Function  
  ----- ------------  ---------------      ----- ------------  ---------------
   118      8.919207  3 O  s                116      5.757700  3 O  s          
    63     -5.649034  2 O  s                138     -4.186783  3 O  dxx        
   141     -4.147624  3 O  dyy              143     -4.122246  3 O  dzz        
   123     -3.674414  3 O  px                61     -3.646002  2 O  s          
   126     -3.298717  3 O  px               173     -3.244854  4 O  s          

 Vector  224  Occ=0.000000D+00  E= 1.731346D+01
              MO Center= -2.8D-01,  1.6D-01,  3.9D-01, r^2= 2.5D+00
   Bfn.  Coefficient  Atom+Function         Bfn.  Coefficient  Atom+Function  
  ----- ------------  ---------------      ----- ------------  ---------------
    63      6.994175  2 O  s                118      6.981893  3 O  s          
   173      6.994818  4 O  s                  3      5.114669  1 S  s          
    61      5.060143  2 O  s                116      5.051369  3 O  s          
   171      5.060656  4 O  s                  2      3.529260  1 S  s          
    86     -3.432332  2 O  dyy              138     -3.363829  3 O  dxx        


 center of mass
 --------------
 x =  -0.32780305 y =   0.18992308 z =   0.41058919

 moments of inertia (a.u.)
 ------------------
         244.713618809299         -22.931404372297         -65.587145290059
         -22.931404372297         218.423507875966          37.927262511694
         -65.587145290059          37.927262511694         313.872707029200

     Multipole analysis of the density
     ---------------------------------

     L   x y z        total         alpha         beta         nuclear
     -   - - -        -----         -----         ----         -------
     0   0 0 0     -2.000000    -21.000000    -21.000000     40.000000

     1   1 0 0      0.891397      7.000353      7.000353    -13.109309
     1   0 1 0     -0.514953     -4.055125     -4.055125      7.595297
     1   0 0 1     -1.209850     -8.814379     -8.814379     16.418907

     2   2 0 0    -37.554382    -56.885075    -56.885075     76.215769
     2   1 1 0     -0.713241     -4.846425     -4.846425      8.979608
     2   1 0 1     -2.153254    -14.787386    -14.787386     27.421519
     2   0 2 0    -38.367385    -62.438832    -62.438832     86.510278
     2   0 1 1      1.244212      8.547681      8.547681    -15.851151
     2   0 0 2    -35.048912    -39.559425    -39.559425     44.069939

 Line search: 
     step= 1.00 grad=-8.8D-07 hess=-4.5D-07 energy=   -623.502163 mode=accept  
 new step= 1.00                   predicted energy=   -623.502163

          --------
          Step   5
          --------


                         Geometry "geometry" -> "geometry"
                         ---------------------------------

 Output coordinates in angstroms (scale by  1.889725989 to convert to a.u.)

  No.       Tag          Charge          X              Y              Z
 ---- ---------------- ---------- -------------- -------------- --------------
    1 S                   16.0000    -0.00577748     0.00356329    -0.06051397
    2 O                    8.0000    -0.16964765     1.56209415    -0.01562276
    3 O                    8.0000    -1.43926407    -0.63077099    -0.01614626
    4 O                    8.0000     0.75332320    -0.43604245     1.23886098

      Atomic Mass 
      ----------- 

      S                 31.972070
      O                 15.994910


 Effective nuclear repulsion energy (a.u.)     169.7022734146

            Nuclear Dipole moment (a.u.) 
            ----------------------------
        X                 Y               Z
 ---------------- ---------------- ----------------
   -13.1093085718     7.5952968747    16.4189074170


                                 NWChem DFT Module
                                 -----------------




 Summary of "ao basis" -> "ao basis" (cartesian)
 ------------------------------------------------------------------------------
       Tag                 Description            Shells   Functions and Types
 ---------------- ------------------------------  ------  ---------------------
 S                        aug-cc-pVTZ               16       59   6s5p3d2f
 O                        aug-cc-pVTZ               14       55   5s4p3d2f



  The DFT is already converged 

         Total DFT energy =   -623.502162589199


            General Information
            -------------------
          SCF calculation type: DFT
          Wavefunction type:  closed shell.
          No. of atoms     :     4
          No. of electrons :    42
           Alpha electrons :    21
            Beta electrons :    21
          Charge           :    -2
          Spin multiplicity:     1
          Use of symmetry is: off; symmetry adaption is: off
          Maximum number of iterations: 100
          AO basis - number of functions:   224
                     number of shells:    58
          Convergence on energy requested:  1.00D-06
          Convergence on density requested:  1.00D-05
          Convergence on gradient requested:  5.00D-04

              XC Information
              --------------
          PerdewBurkeErnzerhof Exchange Functional  1.000          
            Perdew 1991 LDA Correlation Functional  1.000 local    
           PerdewBurkeErnz. Correlation Functional  1.000 non-local

             Grid Information
             ----------------
          Grid used for XC integration:  medium    
          Radial quadrature: Mura-Knowles        
          Angular quadrature: Lebedev. 
          Tag              B.-S. Rad. Rad. Pts. Rad. Cut. Ang. Pts.
          ---              ---------- --------- --------- ---------
          S                   1.00       88          10.0       590
          O                   0.60       49          11.0       434
          Grid pruning is: on 
          Number of quadrature shells:   235
          Spatial weights used:  Erf1

          Convergence Information
          -----------------------
          Convergence aids based upon iterative change in 
          total energy or number of iterations. 
          Levelshifting, if invoked, occurs when the 
          HOMO/LUMO gap drops below (HL_TOL):  1.00D-02
          DIIS, if invoked, will attempt to extrapolate 
          using up to (NFOCK): 10 stored Fock matrices.

                    Damping(40%)  Levelshifting(0.0)       DIIS
                  --------------- ------------------- ---------------
          dE  on:    start            ASAP                start   
          dE off:  100 iters        100 iters           100 iters 


      Screening Tolerance Information
      -------------------------------
          Density screening/tol_rho:  1.00D-10
          AO Gaussian exp screening on grid/accAOfunc:  14
          CD Gaussian exp screening on grid/accCDfunc:  20
          XC Gaussian exp screening on grid/accXCfunc:  20
          Schwarz screening/accCoul:  1.00D-08



                            NWChem DFT Gradient Module
                            --------------------------



  charge          =  -2.00
  wavefunction    = closed shell



                         DFT ENERGY GRADIENTS

    atom               coordinates                        gradient
                 x          y          z           x          y          z
   1 S      -0.010918   0.006734  -0.114355    0.000138   0.000105   0.000070
   2 O      -0.320588   2.951930  -0.029523    0.000029  -0.000025  -0.000013
   3 O      -2.719815  -1.191984  -0.030512   -0.000171  -0.000092  -0.000019
   4 O       1.423574  -0.824001   2.341108    0.000004   0.000012  -0.000038

                 ----------------------------------------
                 |  Time  |  1-e(secs)   |  2-e(secs)   |
                 ----------------------------------------
                 |  CPU   |       0.00   |       4.41   |
                 ----------------------------------------
                 |  WALL  |       0.00   |       4.44   |
                 ----------------------------------------

  Step       Energy      Delta E   Gmax     Grms     Xrms     Xmax   Walltime
  ---- ---------------- -------- -------- -------- -------- -------- --------
@    5    -623.50216259 -1.3D-06  0.00017  0.00008  0.00050  0.00075    249.2
                                     ok       ok       ok       ok  


      ----------------------
      Optimization converged
      ----------------------


  Step       Energy      Delta E   Gmax     Grms     Xrms     Xmax   Walltime
  ---- ---------------- -------- -------- -------- -------- -------- --------
@    5    -623.50216259 -1.3D-06  0.00017  0.00008  0.00050  0.00075    249.2
                                     ok       ok       ok       ok  



                         Geometry "geometry" -> "geometry"
                         ---------------------------------

 Output coordinates in angstroms (scale by  1.889725989 to convert to a.u.)

  No.       Tag          Charge          X              Y              Z
 ---- ---------------- ---------- -------------- -------------- --------------
    1 S                   16.0000    -0.00577748     0.00356329    -0.06051397
    2 O                    8.0000    -0.16964765     1.56209415    -0.01562276
    3 O                    8.0000    -1.43926407    -0.63077099    -0.01614626
    4 O                    8.0000     0.75332320    -0.43604245     1.23886098

      Atomic Mass 
      ----------- 

      S                 31.972070
      O                 15.994910


 Effective nuclear repulsion energy (a.u.)     169.7022734146

            Nuclear Dipole moment (a.u.) 
            ----------------------------
        X                 Y               Z
 ---------------- ---------------- ----------------
   -13.1093085718     7.5952968747    16.4189074170

 ==============================================================================
                                internuclear distances
 ------------------------------------------------------------------------------
       center one      |      center two      | atomic units |  angstroms
 ------------------------------------------------------------------------------
    2 O                |   1 S                |     2.96265  |     1.56776
    3 O                |   1 S                |     2.96346  |     1.56819
    4 O                |   1 S                |     2.96263  |     1.56776
 ------------------------------------------------------------------------------
                         number of included internuclear distances:          3
 ==============================================================================



 ==============================================================================
                                 internuclear angles
 ------------------------------------------------------------------------------
        center 1       |       center 2       |       center 3       |  degrees
 ------------------------------------------------------------------------------
    2 O                |   1 S                |   3 O                |   107.80
    2 O                |   1 S                |   4 O                |   107.80
    3 O                |   1 S                |   4 O                |   107.80
 ------------------------------------------------------------------------------
                            number of included internuclear angles:          3
 ==============================================================================




 Task  times  cpu:      155.6s     wall:      249.0s


                                NWChem Input Module
                                -------------------


 Summary of allocated global arrays
-----------------------------------
  No active global arrays


MA_summarize_allocated_blocks: starting scan ...
MA_summarize_allocated_blocks: scan completed: 0 heap blocks, 0 stack blocks
MA usage statistics:

	allocation statistics:
					      heap	     stack
					      ----	     -----
	current number of blocks	         0	         0
	maximum number of blocks	        24	        53
	current total bytes		         0	         0
	maximum total bytes		 268978736	  51764888
	maximum total K-bytes		    268979	     51765
	maximum total M-bytes		       269	        52


                                     CITATION
                                     --------
                Please cite the following reference when publishing
                           results obtained with NWChem:

          E. Apra, E. J. Bylaska, W. A. de Jong, N. Govind, K. Kowalski,
       T. P. Straatsma, M. Valiev, H. J. J. van Dam, Y. Alexeev, J. Anchell,
       V. Anisimov, F. W. Aquino, R. Atta-Fynn, J. Autschbach, N. P. Bauman,
     J. C. Becca, D. E. Bernholdt, K. Bhaskaran-Nair, S. Bogatko, P. Borowski,
         J. Boschen, J. Brabec, A. Bruner, E. Cauet, Y. Chen, G. N. Chuev,
      C. J. Cramer, J. Daily, M. J. O. Deegan, T. H. Dunning Jr., M. Dupuis,
   K. G. Dyall, G. I. Fann, S. A. Fischer, A. Fonari, H. Fruchtl, L. Gagliardi,
      J. Garza, N. Gawande, S. Ghosh, K. Glaesemann, A. W. Gotz, J. Hammond,
       V. Helms, E. D. Hermes, K. Hirao, S. Hirata, M. Jacquelin, L. Jensen,
   B. G. Johnson, H. Jonsson, R. A. Kendall, M. Klemm, R. Kobayashi, V. Konkov,
      S. Krishnamoorthy, M. Krishnan, Z. Lin, R. D. Lins, R. J. Littlefield,
      A. J. Logsdail, K. Lopata, W. Ma, A. V. Marenich, J. Martin del Campo,
   D. Mejia-Rodriguez, J. E. Moore, J. M. Mullin, T. Nakajima, D. R. Nascimento,
    J. A. Nichols, P. J. Nichols, J. Nieplocha, A. Otero-de-la-Roza, B. Palmer,
    A. Panyala, T. Pirojsirikul, B. Peng, R. Peverati, J. Pittner, L. Pollack,
   R. M. Richard, P. Sadayappan, G. C. Schatz, W. A. Shelton, D. W. Silverstein,
   D. M. A. Smith, T. A. Soares, D. Song, M. Swart, H. L. Taylor, G. S. Thomas,
            V. Tipparaju, D. G. Truhlar, K. Tsemekhman, T. Van Voorhis,
      A. Vazquez-Mayagoitia, P. Verma, O. Villa, A. Vishnu, K. D. Vogiatzis,
        D. Wang, J. H. Weare, M. J. Williamson, T. L. Windus, K. Wolinski,
        A. T. Wong, Q. Wu, C. Yang, Q. Yu, M. Zacharias, Z. Zhang, Y. Zhao,
                                and R. J. Harrison
                        "NWChem: Past, present, and future
                         J. Chem. Phys. 152, 184102 (2020)
                               doi:10.1063/5.0004997

                                      AUTHORS
                                      -------
  E. Apra, E. J. Bylaska, N. Govind, K. Kowalski, M. Valiev, D. Mejia-Rodriguez,
       A. Kunitsa, N. P. Bauman, A. Panyala, W. A. de Jong, T. P. Straatsma,
   H. J. J. van Dam, D. Wang, T. L. Windus, J. Hammond, J. Autschbach, A. Woods,
    K. Bhaskaran-Nair, J. Brabec, K. Lopata, S. A. Fischer, S. Krishnamoorthy,
     M. Jacquelin, W. Ma, M. Klemm, O. Villa, Y. Chen, V. Anisimov, F. Aquino,
     S. Hirata, M. T. Hackler, E. Hermes, L. Jensen, J. E. Moore, J. C. Becca,
      V. Konjkov, T. Risthaus, M. Malagoli, A. Marenich, A. Otero-de-la-Roza,
        J. Mullin, P. Nichols, R. Peverati, J. Pittner, Y. Zhao, P.-D. Fan,
        A. Fonari, M. J. Williamson, R. J. Harrison, J. R. Rehr, M. Dupuis,
     D. Silverstein, D. M. A. Smith, J. Nieplocha, V. Tipparaju, M. Krishnan,
     B. E. Van Kuiken, A. Vazquez-Mayagoitia, M. Swart, Q. Wu, T. Van Voorhis,
     A. A. Auer, M. Nooijen, L. D. Crosby, E. Brown, G. Cisneros, G. I. Fann,
   H. Fruchtl, J. Garza, K. Hirao, R. A. Kendall, J. A. Nichols, K. Tsemekhman,
    K. Wolinski, J. Anchell, D. E. Bernholdt, P. Borowski, T. Clark, D. Clerc,
   H. Dachsel, M. J. O. Deegan, K. Dyall, D. Elwood, E. Glendening, M. Gutowski,
   A. C. Hess, J. Jaffe, B. G. Johnson, J. Ju, R. Kobayashi, R. Kutteh, Z. Lin,
   R. Littlefield, X. Long, B. Meng, T. Nakajima, S. Niu, L. Pollack, M. Rosing,
   K. Glaesemann, G. Sandrone, M. Stave, H. Taylor, G. Thomas, J. H. van Lenthe,
                               A. T. Wong, Z. Zhang.

 Total times  cpu:      155.7s     wall:      249.2s
