 argument  1 = m1e/mol.nwi
                                         
                                         


             Northwest Computational Chemistry Package (NWChem) 7.2.2
             --------------------------------------------------------


                    Environmental Molecular Sciences Laboratory
                       Pacific Northwest National Laboratory
                                Richland, WA 99352

                              Copyright (c) 1994-2022
                       Pacific Northwest National Laboratory
                            Battelle Memorial Institute

             NWChem is an open-source computational chemistry package
                        distributed under the terms of the
                      Educational Community License (ECL) 2.0
             A copy of the license is included with this distribution
                              in the LICENSE.TXT file

                                  ACKNOWLEDGMENT
                                  --------------

            This software and its documentation were developed at the
            EMSL at Pacific Northwest National Laboratory, a multiprogram
            national laboratory, operated for the U.S. Department of Energy
            by Battelle under Contract Number DE-AC05-76RL01830. Support
            for this work was provided by the Department of Energy Office
            of Biological and Environmental Research, Office of Basic
            Energy Sciences, and the Office of Advanced Scientific Computing.


           Job information
           ---------------

    hostname        = r227.ib.bridges2.psc.edu
    program         = nwchem
    date            = Tue Oct  1 14:53:30 2024

    compiled        = Mon_Mar_18_17:03:37_2024
    source          = /ocean/projects/pscstaff/mmadrid/nwchem-7.2.2
    nwchem branch   = 7.2.2
    nwchem revision = 74936fb9
    ga revision     = 5.8.0
    use scalapack   = F
    input           = m1e/mol.nwi
    prefix          = dft.
    data base       = .//dft.db
    status          = startup
    nproc           =       15
    time left       =     -1s



           Memory information
           ------------------

    heap     =   67108862 doubles =    512.0 Mbytes
    stack    =   67108859 doubles =    512.0 Mbytes
    global   =  134217728 doubles =   1024.0 Mbytes (distinct from heap & stack)
    total    =  268435449 doubles =   2048.0 Mbytes
    verify   = yes
    hardfail = no 


           Directory information
           ---------------------

  0 permanent = ./
  0 scratch   = /jet/home/hmt47/nwchem_scratch/




                                NWChem Input Module
                                -------------------


  library name resolved from: environment
  library file name is: </opt/packages/nwchem/nwchem7.2.2/share/nwchem/libraries/>
  


 Summary of "ao basis" -> "" (cartesian)
 ------------------------------------------------------------------------------
       Tag                 Description            Shells   Functions and Types
 ---------------- ------------------------------  ------  ---------------------
 *                        aug-cc-pVTZ                 on all atoms 


  pbe96 is a nonlocal functional; adding pw91lda local functional. 

 Scaling coordinates for geometry "geometry" by  1.889725989
 (inverse scale =  0.529177249)



                             Geometry "geometry" -> ""
                             -------------------------

 Output coordinates in angstroms (scale by  1.889725989 to convert to a.u.)

  No.       Tag          Charge          X              Y              Z
 ---- ---------------- ---------- -------------- -------------- --------------
    1 C                    6.0000     0.00000000     0.00000000     0.00000000
    2 C                    6.0000    -0.02637100     0.04288300     1.54796100
    3 O                    8.0000     0.58474300     0.98726200    -0.53741600
    4 O                    8.0000    -0.55178700    -1.00785700    -0.52690900
    5 H                    1.0000     0.34323600     0.99712300     1.95527300
    6 F                    9.0000    -1.31277300    -0.17653700     1.98111100
    7 F                    9.0000     0.75242100    -0.99297900     2.02011900

      Atomic Mass 
      ----------- 

      C                 12.000000
      O                 15.994910
      H                  1.007825
      F                 18.998400


 Effective nuclear repulsion energy (a.u.)     235.6324511201

            Nuclear Dipole moment (a.u.) 
            ----------------------------
        X                 Y               Z
 ---------------- ---------------- ----------------
    -8.6823649518   -17.8314223029    73.2070569421


            XYZ format geometry
            -------------------
     7
 geometry
 C                     0.00000000     0.00000000     0.00000000
 C                    -0.02637100     0.04288300     1.54796100
 O                     0.58474300     0.98726200    -0.53741600
 O                    -0.55178700    -1.00785700    -0.52690900
 H                     0.34323600     0.99712300     1.95527300
 F                    -1.31277300    -0.17653700     1.98111100
 F                     0.75242100    -0.99297900     2.02011900

 ==============================================================================
                                internuclear distances
 ------------------------------------------------------------------------------
       center one      |      center two      | atomic units |  angstroms
 ------------------------------------------------------------------------------
    2 C                |   1 C                |     2.92677  |     1.54878
    3 O                |   1 C                |     2.39439  |     1.26705
    4 O                |   1 C                |     2.38875  |     1.26407
    5 H                |   2 C                |     2.08135  |     1.10140
    6 F                |   2 C                |     2.59835  |     1.37499
    7 F                |   2 C                |     2.60649  |     1.37930
 ------------------------------------------------------------------------------
                         number of included internuclear distances:          6
 ==============================================================================



 ==============================================================================
                                 internuclear angles
 ------------------------------------------------------------------------------
        center 1       |       center 2       |       center 3       |  degrees
 ------------------------------------------------------------------------------
    2 C                |   1 C                |   3 O                |   114.22
    2 C                |   1 C                |   4 O                |   115.55
    3 O                |   1 C                |   4 O                |   130.23
    1 C                |   2 C                |   5 H                |   112.82
    1 C                |   2 C                |   6 F                |   109.05
    1 C                |   2 C                |   7 F                |   108.16
    5 H                |   2 C                |   6 F                |   109.62
    5 H                |   2 C                |   7 F                |   109.55
    6 F                |   2 C                |   7 F                |   107.49
 ------------------------------------------------------------------------------
                            number of included internuclear angles:          9
 ==============================================================================





                           NWChem Geometry Optimization
                           ----------------------------


 maximum gradient threshold         (gmax) =   0.000450
 rms gradient threshold             (grms) =   0.000300
 maximum cartesian step threshold   (xmax) =   0.001800
 rms cartesian step threshold       (xrms) =   0.001200
 fixed trust radius                (trust) =   0.300000
 maximum step size to saddle      (sadstp) =   0.100000
 energy precision                  (eprec) =   5.0D-06
 maximum number of steps          (nptopt) =   40
 initial hessian option           (inhess) =    0
 line search option               (linopt) =    1
 hessian update option            (modupd) =    1
 saddle point option              (modsad) =    0
 initial eigen-mode to follow     (moddir) =    0
 initial variable to follow       (vardir) =    0
 follow first negative mode     (firstneg) =    T
 apply conjugacy                    (opcg) =    F
 source of zmatrix                         =           


          -------------------
          Energy Minimization
          -------------------


 Using diagonal initial Hessian 

          --------
          Step   0
          --------


                         Geometry "geometry" -> "geometry"
                         ---------------------------------

 Output coordinates in angstroms (scale by  1.889725989 to convert to a.u.)

  No.       Tag          Charge          X              Y              Z
 ---- ---------------- ---------- -------------- -------------- --------------
    1 C                    6.0000     0.00000000     0.00000000     0.00000000
    2 C                    6.0000    -0.02637100     0.04288300     1.54796100
    3 O                    8.0000     0.58474300     0.98726200    -0.53741600
    4 O                    8.0000    -0.55178700    -1.00785700    -0.52690900
    5 H                    1.0000     0.34323600     0.99712300     1.95527300
    6 F                    9.0000    -1.31277300    -0.17653700     1.98111100
    7 F                    9.0000     0.75242100    -0.99297900     2.02011900

      Atomic Mass 
      ----------- 

      C                 12.000000
      O                 15.994910
      H                  1.007825
      F                 18.998400


 Effective nuclear repulsion energy (a.u.)     235.6324511201

            Nuclear Dipole moment (a.u.) 
            ----------------------------
        X                 Y               Z
 ---------------- ---------------- ----------------
    -8.6823649518   -17.8314223029    73.2070569421


                                 NWChem DFT Module
                                 -----------------


                      Basis "ao basis" -> "ao basis" (cartesian)
                      -----
  C (Carbon)
  ----------
            Exponent  Coefficients 
       -------------- ---------------------------------------------------------
  1 S  8.23600000E+03  0.000531
  1 S  1.23500000E+03  0.004108
  1 S  2.80800000E+02  0.021087
  1 S  7.92700000E+01  0.081853
  1 S  2.55900000E+01  0.234817
  1 S  8.99700000E+00  0.434401
  1 S  3.31900000E+00  0.346129
  1 S  3.64300000E-01 -0.008983

  2 S  8.23600000E+03 -0.000113
  2 S  1.23500000E+03 -0.000878
  2 S  2.80800000E+02 -0.004540
  2 S  7.92700000E+01 -0.018133
  2 S  2.55900000E+01 -0.055760
  2 S  8.99700000E+00 -0.126895
  2 S  3.31900000E+00 -0.170352
  2 S  3.64300000E-01  0.598684

  3 S  9.05900000E-01  1.000000

  4 S  1.28500000E-01  1.000000

  5 S  4.40200000E-02  1.000000

  6 P  1.87100000E+01  0.014031
  6 P  4.13300000E+00  0.086866
  6 P  1.20000000E+00  0.290216

  7 P  3.82700000E-01  1.000000

  8 P  1.20900000E-01  1.000000

  9 P  3.56900000E-02  1.000000

 10 D  1.09700000E+00  1.000000

 11 D  3.18000000E-01  1.000000

 12 D  1.00000000E-01  1.000000

 13 F  7.61000000E-01  1.000000

 14 F  2.68000000E-01  1.000000

  O (Oxygen)
  ----------
            Exponent  Coefficients 
       -------------- ---------------------------------------------------------
  1 S  1.53300000E+04  0.000508
  1 S  2.29900000E+03  0.003929
  1 S  5.22400000E+02  0.020243
  1 S  1.47300000E+02  0.079181
  1 S  4.75500000E+01  0.230687
  1 S  1.67600000E+01  0.433118
  1 S  6.20700000E+00  0.350260
  1 S  6.88200000E-01 -0.008154

  2 S  1.53300000E+04 -0.000115
  2 S  2.29900000E+03 -0.000895
  2 S  5.22400000E+02 -0.004636
  2 S  1.47300000E+02 -0.018724
  2 S  4.75500000E+01 -0.058463
  2 S  1.67600000E+01 -0.136463
  2 S  6.20700000E+00 -0.175740
  2 S  6.88200000E-01  0.603418

  3 S  1.75200000E+00  1.000000

  4 S  2.38400000E-01  1.000000

  5 S  7.37600000E-02  1.000000

  6 P  3.44600000E+01  0.015928
  6 P  7.74900000E+00  0.099740
  6 P  2.28000000E+00  0.310492

  7 P  7.15600000E-01  1.000000

  8 P  2.14000000E-01  1.000000

  9 P  5.97400000E-02  1.000000

 10 D  2.31400000E+00  1.000000

 11 D  6.45000000E-01  1.000000

 12 D  2.14000000E-01  1.000000

 13 F  1.42800000E+00  1.000000

 14 F  5.00000000E-01  1.000000

  H (Hydrogen)
  ------------
            Exponent  Coefficients 
       -------------- ---------------------------------------------------------
  1 S  3.38700000E+01  0.006068
  1 S  5.09500000E+00  0.045308
  1 S  1.15900000E+00  0.202822

  2 S  3.25800000E-01  1.000000

  3 S  1.02700000E-01  1.000000

  4 S  2.52600000E-02  1.000000

  5 P  1.40700000E+00  1.000000

  6 P  3.88000000E-01  1.000000

  7 P  1.02000000E-01  1.000000

  8 D  1.05700000E+00  1.000000

  9 D  2.47000000E-01  1.000000

  F (Fluorine)
  ------------
            Exponent  Coefficients 
       -------------- ---------------------------------------------------------
  1 S  1.95000000E+04  0.000507
  1 S  2.92300000E+03  0.003923
  1 S  6.64500000E+02  0.020200
  1 S  1.87500000E+02  0.079010
  1 S  6.06200000E+01  0.230439
  1 S  2.14200000E+01  0.432872
  1 S  7.95000000E+00  0.349964
  1 S  8.81500000E-01 -0.007892

  2 S  1.95000000E+04 -0.000117
  2 S  2.92300000E+03 -0.000912
  2 S  6.64500000E+02 -0.004717
  2 S  1.87500000E+02 -0.019086
  2 S  6.06200000E+01 -0.059655
  2 S  2.14200000E+01 -0.140010
  2 S  7.95000000E+00 -0.176782
  2 S  8.81500000E-01  0.605043

  3 S  2.25700000E+00  1.000000

  4 S  3.04100000E-01  1.000000

  5 S  9.15800000E-02  1.000000

  6 P  4.38800000E+01  0.016665
  6 P  9.92600000E+00  0.104472
  6 P  2.93000000E+00  0.317260

  7 P  9.13200000E-01  1.000000

  8 P  2.67200000E-01  1.000000

  9 P  7.36100000E-02  1.000000

 10 D  3.10700000E+00  1.000000

 11 D  8.55000000E-01  1.000000

 12 D  2.92000000E-01  1.000000

 13 F  1.91700000E+00  1.000000

 14 F  7.24000000E-01  1.000000



 Summary of "ao basis" -> "ao basis" (cartesian)
 ------------------------------------------------------------------------------
       Tag                 Description            Shells   Functions and Types
 ---------------- ------------------------------  ------  ---------------------
 C                        aug-cc-pVTZ               14       55   5s4p3d2f
 O                        aug-cc-pVTZ               14       55   5s4p3d2f
 H                        aug-cc-pVTZ                9       25   4s3p2d
 F                        aug-cc-pVTZ               14       55   5s4p3d2f




 Summary of "ao basis" -> "ao basis" (cartesian)
 ------------------------------------------------------------------------------
       Tag                 Description            Shells   Functions and Types
 ---------------- ------------------------------  ------  ---------------------
 C                        aug-cc-pVTZ               14       55   5s4p3d2f
 O                        aug-cc-pVTZ               14       55   5s4p3d2f
 H                        aug-cc-pVTZ                9       25   4s3p2d
 F                        aug-cc-pVTZ               14       55   5s4p3d2f


  Caching 1-el integrals 

            General Information
            -------------------
          SCF calculation type: DFT
          Wavefunction type:  closed shell.
          No. of atoms     :     7
          No. of electrons :    48
           Alpha electrons :    24
            Beta electrons :    24
          Charge           :    -1
          Spin multiplicity:     1
          Use of symmetry is: off; symmetry adaption is: off
          Maximum number of iterations: 200
          AO basis - number of functions:   355
                     number of shells:    93
          Convergence on energy requested:  1.00D-06
          Convergence on density requested:  1.00D-05
          Convergence on gradient requested:  5.00D-04

              XC Information
              --------------
          PerdewBurkeErnzerhof Exchange Functional  1.000          
            Perdew 1991 LDA Correlation Functional  1.000 local    
           PerdewBurkeErnz. Correlation Functional  1.000 non-local

             Grid Information
             ----------------
          Grid used for XC integration:  medium    
          Radial quadrature: Mura-Knowles        
          Angular quadrature: Lebedev. 
          Tag              B.-S. Rad. Rad. Pts. Rad. Cut. Ang. Pts.
          ---              ---------- --------- --------- ---------
          C                   0.70       49          13.0       434
          O                   0.60       49          14.0       434
          H                   0.35       45          13.0       434
          F                   0.50       49          12.0       434
          Grid pruning is: on 
          Number of quadrature shells:   339
          Spatial weights used:  Erf1

          Convergence Information
          -----------------------
          Convergence aids based upon iterative change in 
          total energy or number of iterations. 
          Levelshifting, if invoked, occurs when the 
          HOMO/LUMO gap drops below (HL_TOL):  1.00D-02
          DIIS, if invoked, will attempt to extrapolate 
          using up to (NFOCK): 10 stored Fock matrices.

                    Damping(40%)  Levelshifting(0.0)       DIIS
                  --------------- ------------------- ---------------
          dE  on:    start            0.00D+00            start   
          dE off:  200 iters          0.00D+00          200 iters 


      Screening Tolerance Information
      -------------------------------
          Density screening/tol_rho:  1.00D-10
          AO Gaussian exp screening on grid/accAOfunc:  14
          CD Gaussian exp screening on grid/accCDfunc:  20
          XC Gaussian exp screening on grid/accXCfunc:  20
          Schwarz screening/accCoul:  1.00D-08


 Forcing the number of linearly dependent vectors to be  0

      Superposition of Atomic Density Guess
      -------------------------------------

 Sum of atomic energies:        -424.22924910
   Time after variat. SCF:      0.5
   Time prior to 1st pass:      0.5

 Grid_pts file          = /jet/home/hmt47/nwchem_scratch//dft.gridpts.00
 Record size in doubles =  12289        No. of grid_pts per rec  =   3070
 Max. records in memory =      5        Max. recs in file   =  67550051

 Grid integrated density:      47.000004512281
 Requested integration accuracy:   0.10E-05

           Memory utilization after 1st SCF pass: 
           Heap Space remaining (MW):       33.49            33485662
          Stack Space remaining (MW):       67.11            67106980

   convergence    iter        energy       DeltaE   RMS-Dens  Diis-err    time
 ---------------- ----- ----------------- --------- --------- ---------  ------
 d=40,ls=0.0,diis     1   -427.4358339540 -6.63D+02  8.06D-03  4.73D+01     1.1
 Grid integrated density:      47.600003534193
 Requested integration accuracy:   0.10E-05
 d=40,ls=0.0,diis     2   -427.0247445840  4.11D-01  1.03D+00  7.94D+00     6.2
 Grid integrated density:      47.839994991557
 Requested integration accuracy:   0.10E-05
 d=40,ls=0.0,diis     3   -425.1756130591  1.85D+00  6.20D-01  7.58D+00    11.7
 Grid integrated density:      47.935999622133
 Requested integration accuracy:   0.10E-05
 d=40,ls=0.0,diis     4   -426.5067779936 -1.33D+00  2.48D-01  8.40D-01    17.2
 Grid integrated density:      47.974401465701
 Requested integration accuracy:   0.10E-05
 d=40,ls=0.0,diis     5   -426.7048104936 -1.98D-01  9.91D-02  5.16D-02    22.6
 Grid integrated density:      47.989762122544
 Requested integration accuracy:   0.10E-05
  Resetting Diis
 d=40,ls=0.0,diis     6   -426.7452288887 -4.04D-02  3.96D-02  1.74D-02    27.9
 Grid integrated density:      47.995906469749
 Requested integration accuracy:   0.10E-05
 d=40,ls=0.0,diis     7   -426.7591033839 -1.39D-02  1.56D-02  1.75D-02    33.3
 Grid integrated density:      47.998364135462
 Requested integration accuracy:   0.10E-05
 d=40,ls=0.0,diis     8   -426.7642994149 -5.20D-03  6.43D-03  1.43D-02    38.9
 Grid integrated density:      47.999347222065
 Requested integration accuracy:   0.10E-05
 d=40,ls=0.0,diis     9   -426.7684193467 -4.12D-03  2.58D-03  1.36D-03    44.0
 Grid integrated density:      47.999740459376
 Requested integration accuracy:   0.10E-05
 d=40,ls=0.0,diis    10   -426.7698122792 -1.39D-03  1.04D-03  3.99D-04    49.3
 Grid integrated density:      47.999897744642
 Requested integration accuracy:   0.10E-05
 d=40,ls=0.0,diis    11   -426.7703815529 -5.69D-04  4.21D-04  9.48D-05    54.9
 d=40,ls=0.0,diis    12   -426.7706117011 -2.30D-04  1.73D-04  1.47D-05    60.1
 d=40,ls=0.0,diis    13   -426.7707026358 -9.09D-05  7.31D-05  2.58D-06    65.4
 d=40,ls=0.0,diis    14   -426.7707389090 -3.63D-05  2.98D-05  4.02D-07    70.8
 d=40,ls=0.0,diis    15   -426.7707533895 -1.45D-05  1.26D-05  6.05D-08    76.2
 d=40,ls=0.0,diis    16   -426.7707591777 -5.79D-06  5.27D-06  9.14D-09    81.4
 d=40,ls=0.0,diis    17   -426.7707614923 -2.31D-06  2.10D-06  1.48D-09    86.7
 d=40,ls=0.0,diis    18   -426.7707624181 -9.26D-07  8.36D-07  2.43D-10    92.3


         Total DFT energy =     -426.770762418098
      One electron energy =    -1067.673474769979
           Coulomb energy =      454.332895689649
    Exchange-Corr. energy =      -49.062634457897
 Nuclear repulsion energy =      235.632451120128

 Numeric. integr. density =       48.000002436822

     Total iterative time =     91.8s



                       DFT Final Molecular Orbital Analysis
                       ------------------------------------

 Vector    1  Occ=2.000000D+00  E=-2.410792D+01
              MO Center=  7.5D-01, -9.9D-01,  2.0D+00, r^2= 1.3D-02
   Bfn.  Coefficient  Atom+Function         Bfn.  Coefficient  Atom+Function  
  ----- ------------  ---------------      ----- ------------  ---------------
   301      0.977606  7 F  s                223     -0.111656  5 H  s          
    68      0.068508  2 C  py               303      0.065089  7 F  s          
   304     -0.046804  7 F  s                 88      0.032399  2 C  dyy        
   305     -0.031360  7 F  s                 85      0.027980  2 C  dxx        
    86      0.027762  2 C  dxy              330      0.027634  7 F  dxx        

 Vector    2  Occ=2.000000D+00  E=-2.410696D+01
              MO Center= -1.3D+00, -1.8D-01,  2.0D+00, r^2= 1.3D-02
   Bfn.  Coefficient  Atom+Function         Bfn.  Coefficient  Atom+Function  
  ----- ------------  ---------------      ----- ------------  ---------------
   246      0.977550  6 F  s                223     -0.106975  5 H  s          
   248      0.065082  6 F  s                 68      0.054748  2 C  py         
   249     -0.051320  6 F  s                 67      0.046017  2 C  px         
    88      0.042275  2 C  dyy               59      0.035006  2 C  s          
   250     -0.031907  6 F  s                275      0.027497  6 F  dxx        

 Vector    3  Occ=2.000000D+00  E=-1.851988D+01
              MO Center=  5.8D-01,  9.9D-01, -5.4D-01, r^2= 1.5D-02
   Bfn.  Coefficient  Atom+Function         Bfn.  Coefficient  Atom+Function  
  ----- ------------  ---------------      ----- ------------  ---------------
   111      0.982100  3 O  s                223     -0.083825  5 H  s          
   113      0.067255  3 O  s                169      0.052717  4 O  s          
   114     -0.047736  3 O  s                  4     -0.044141  1 C  s          
    54      0.039856  1 C  fyzz              50      0.035773  1 C  fxyz       
    53      0.033092  1 C  fyyz              14      0.031322  1 C  pz         

 Vector    4  Occ=2.000000D+00  E=-1.851652D+01
              MO Center= -5.5D-01, -1.0D+00, -5.3D-01, r^2= 1.5D-02
   Bfn.  Coefficient  Atom+Function         Bfn.  Coefficient  Atom+Function  
  ----- ------------  ---------------      ----- ------------  ---------------
   166      0.982901  4 O  s                 59     -0.073910  2 C  s          
   168      0.067851  4 O  s                114      0.055839  3 O  s          
   169     -0.051619  4 O  s                 54     -0.047216  1 C  fyzz       
    14      0.043893  1 C  pz                50      0.041151  1 C  fxyz       
    53      0.035251  1 C  fyyz             222      0.027585  5 H  s          

 Vector    5  Occ=2.000000D+00  E=-9.864571D+00
              MO Center= -2.6D-02,  4.3D-02,  1.5D+00, r^2= 2.8D-02
   Bfn.  Coefficient  Atom+Function         Bfn.  Coefficient  Atom+Function  
  ----- ------------  ---------------      ----- ------------  ---------------
    56      1.012903  2 C  s                 57      0.085422  2 C  s          
    58      0.064850  2 C  s                222     -0.041831  5 H  s          
    59     -0.032446  2 C  s          

 Vector    6  Occ=2.000000D+00  E=-9.783403D+00
              MO Center=  3.6D-06,  5.7D-06, -1.4D-05, r^2= 2.8D-02
   Bfn.  Coefficient  Atom+Function         Bfn.  Coefficient  Atom+Function  
  ----- ------------  ---------------      ----- ------------  ---------------
     1      1.012457  1 C  s                  2      0.084987  1 C  s          
     3      0.067029  1 C  s                169     -0.058044  4 O  s          
     4     -0.055295  1 C  s                114     -0.047654  3 O  s          
    69     -0.038465  2 C  pz                59      0.031493  2 C  s          
    27      0.031171  1 C  dyy               25      0.030629  1 C  dxy        

 Vector    7  Occ=2.000000D+00  E=-9.857517D-01
              MO Center= -2.5D-01, -4.9D-01,  1.9D+00, r^2= 1.3D+00
   Bfn.  Coefficient  Atom+Function         Bfn.  Coefficient  Atom+Function  
  ----- ------------  ---------------      ----- ------------  ---------------
   247      0.340779  6 F  s                302      0.339673  7 F  s          
   249      0.245173  6 F  s                304      0.244655  7 F  s          
    57      0.155800  2 C  s                248      0.101106  6 F  s          
   303      0.100812  7 F  s                223      0.079519  5 H  s          
    59     -0.066236  2 C  s                250      0.057075  6 F  s          

 Vector    8  Occ=2.000000D+00  E=-9.335950D-01
              MO Center= -2.5D-01, -5.2D-01,  2.0D+00, r^2= 1.4D+00
   Bfn.  Coefficient  Atom+Function         Bfn.  Coefficient  Atom+Function  
  ----- ------------  ---------------      ----- ------------  ---------------
   247      0.369961  6 F  s                302     -0.371654  7 F  s          
   304     -0.263076  7 F  s                249      0.260392  6 F  s          
   248      0.109537  6 F  s                303     -0.110064  7 F  s          
    61     -0.073221  2 C  px                64     -0.060757  2 C  px         
   250      0.037432  6 F  s                305     -0.036450  7 F  s          

 Vector    9  Occ=2.000000D+00  E=-7.492850D-01
              MO Center=  2.7D-02,  2.2D-02, -3.3D-01, r^2= 1.2D+00
   Bfn.  Coefficient  Atom+Function         Bfn.  Coefficient  Atom+Function  
  ----- ------------  ---------------      ----- ------------  ---------------
   112      0.290350  3 O  s                  2      0.275633  1 C  s          
   167      0.276843  4 O  s                114      0.165555  3 O  s          
   169      0.152990  4 O  s                115      0.083947  3 O  s          
   170      0.083467  4 O  s                113      0.081896  3 O  s          
     3      0.078049  1 C  s                168      0.078370  4 O  s          

 Vector   10  Occ=2.000000D+00  E=-6.716934D-01
              MO Center= -5.5D-03, -3.6D-02, -3.7D-01, r^2= 1.3D+00
   Bfn.  Coefficient  Atom+Function         Bfn.  Coefficient  Atom+Function  
  ----- ------------  ---------------      ----- ------------  ---------------
   167     -0.339610  4 O  s                112      0.327243  3 O  s          
   169     -0.291638  4 O  s                114      0.286239  3 O  s          
     7      0.141320  1 C  py               168     -0.093900  4 O  s          
   113      0.090266  3 O  s                  6      0.080354  1 C  px         
    59      0.054600  2 C  s                 10      0.052639  1 C  py         

 Vector   11  Occ=2.000000D+00  E=-4.770612D-01
              MO Center= -8.1D-02, -1.1D-01,  1.5D+00, r^2= 1.9D+00
   Bfn.  Coefficient  Atom+Function         Bfn.  Coefficient  Atom+Function  
  ----- ------------  ---------------      ----- ------------  ---------------
    57      0.361787  2 C  s                247     -0.152327  6 F  s          
   302     -0.151691  7 F  s                222      0.132387  5 H  s          
   304     -0.122044  7 F  s                 59      0.121058  2 C  s          
   249     -0.121171  6 F  s                251      0.117023  6 F  px         
   223     -0.115892  5 H  s                254      0.108608  6 F  px         

 Vector   12  Occ=2.000000D+00  E=-3.390717D-01
              MO Center= -1.3D-01, -2.1D-01,  1.2D+00, r^2= 2.2D+00
   Bfn.  Coefficient  Atom+Function         Bfn.  Coefficient  Atom+Function  
  ----- ------------  ---------------      ----- ------------  ---------------
    63      0.205357  2 C  pz                66      0.178248  2 C  pz         
     2     -0.172469  1 C  s                  4     -0.162587  1 C  s          
    59      0.159558  2 C  s                251      0.145388  6 F  px         
   254      0.140882  6 F  px                 8     -0.124089  1 C  pz         
    11     -0.115971  1 C  pz               167      0.112942  4 O  s          

 Vector   13  Occ=2.000000D+00  E=-3.291615D-01
              MO Center= -1.8D-01, -5.2D-01,  1.9D+00, r^2= 1.8D+00
   Bfn.  Coefficient  Atom+Function         Bfn.  Coefficient  Atom+Function  
  ----- ------------  ---------------      ----- ------------  ---------------
   307      0.198856  7 F  py               310      0.192624  7 F  py         
   251     -0.186338  6 F  px               254     -0.180888  6 F  px         
    61      0.174467  2 C  px                64      0.150614  2 C  px         
   304     -0.132942  7 F  s                249      0.127906  6 F  s          
   313      0.121865  7 F  py               308     -0.114071  7 F  pz         

 Vector   14  Occ=2.000000D+00  E=-3.226219D-01
              MO Center= -1.1D-01, -2.3D-02,  1.8D+00, r^2= 1.7D+00
   Bfn.  Coefficient  Atom+Function         Bfn.  Coefficient  Atom+Function  
  ----- ------------  ---------------      ----- ------------  ---------------
    62      0.196231  2 C  py                65      0.159894  2 C  py         
   306      0.157478  7 F  px               309      0.152216  7 F  px         
   222      0.146878  5 H  s                251     -0.131083  6 F  px         
   254     -0.126982  6 F  px               221      0.123632  5 H  s          
    59      0.121731  2 C  s                252      0.116981  6 F  py         

 Vector   15  Occ=2.000000D+00  E=-2.236909D-01
              MO Center= -4.8D-02, -1.1D-01,  4.9D-01, r^2= 3.7D+00
   Bfn.  Coefficient  Atom+Function         Bfn.  Coefficient  Atom+Function  
  ----- ------------  ---------------      ----- ------------  ---------------
     2      0.230073  1 C  s                169     -0.215491  4 O  s          
     4      0.202179  1 C  s                112     -0.171643  3 O  s          
   253      0.161487  6 F  pz               256      0.157465  6 F  pz         
   308      0.149100  7 F  pz               311      0.145669  7 F  pz         
   167     -0.141014  4 O  s                117     -0.130581  3 O  py         

 Vector   16  Occ=2.000000D+00  E=-2.075188D-01
              MO Center= -2.4D-01, -5.3D-01,  1.7D+00, r^2= 2.2D+00
   Bfn.  Coefficient  Atom+Function         Bfn.  Coefficient  Atom+Function  
  ----- ------------  ---------------      ----- ------------  ---------------
   308      0.241977  7 F  pz               311      0.236952  7 F  pz         
   253     -0.207390  6 F  pz               256     -0.203209  6 F  pz         
   314      0.168535  7 F  pz               259     -0.145794  6 F  pz         
   252     -0.143129  6 F  py               255     -0.139716  6 F  py         
   307      0.123669  7 F  py               310      0.119961  7 F  py         

 Vector   17  Occ=2.000000D+00  E=-2.015149D-01
              MO Center= -1.6D-01, -4.0D-01,  1.1D+00, r^2= 3.1D+00
   Bfn.  Coefficient  Atom+Function         Bfn.  Coefficient  Atom+Function  
  ----- ------------  ---------------      ----- ------------  ---------------
   307      0.185807  7 F  py               310      0.182475  7 F  py         
   252      0.168580  6 F  py               255      0.164617  6 F  py         
   253     -0.123497  6 F  pz               256     -0.121514  6 F  pz         
   258      0.119063  6 F  py               172      0.118293  4 O  py         
     8     -0.116750  1 C  pz               114     -0.114279  3 O  s          

 Vector   18  Occ=2.000000D+00  E=-1.889020D-01
              MO Center= -2.6D-01, -5.1D-01,  1.9D+00, r^2= 2.0D+00
   Bfn.  Coefficient  Atom+Function         Bfn.  Coefficient  Atom+Function  
  ----- ------------  ---------------      ----- ------------  ---------------
   306      0.275231  7 F  px               309      0.270672  7 F  px         
   252     -0.242800  6 F  py               255     -0.238165  6 F  py         
   312      0.187801  7 F  px               258     -0.183816  6 F  py         
   251      0.149492  6 F  px               254      0.147487  6 F  px         
   257      0.086534  6 F  px               313      0.075897  7 F  py         

 Vector   19  Occ=2.000000D+00  E=-1.674239D-01
              MO Center=  1.7D-02,  1.3D-02, -4.2D-01, r^2= 2.4D+00
   Bfn.  Coefficient  Atom+Function         Bfn.  Coefficient  Atom+Function  
  ----- ------------  ---------------      ----- ------------  ---------------
     7      0.180886  1 C  py               117     -0.166912  3 O  py         
    59      0.160941  2 C  s                120     -0.159422  3 O  py         
   173     -0.144611  4 O  pz               176     -0.141365  4 O  pz         
   172     -0.139886  4 O  py               112     -0.136918  3 O  s          
   175     -0.134608  4 O  py               167      0.130460  4 O  s          

 Vector   20  Occ=2.000000D+00  E=-1.528059D-01
              MO Center=  3.5D-02, -7.6D-02,  8.4D-02, r^2= 2.4D+00
   Bfn.  Coefficient  Atom+Function         Bfn.  Coefficient  Atom+Function  
  ----- ------------  ---------------      ----- ------------  ---------------
     6      0.186265  1 C  px               116      0.163327  3 O  px         
   119      0.159646  3 O  px                 9      0.157153  1 C  px         
   171      0.142014  4 O  px               174      0.139016  4 O  px         
   308      0.138568  7 F  pz               311      0.137078  7 F  pz         
   122      0.104843  3 O  px                 7     -0.098687  1 C  py         

 Vector   21  Occ=2.000000D+00  E=-1.437000D-01
              MO Center= -1.7D-01, -1.4D-01,  1.3D+00, r^2= 2.8D+00
   Bfn.  Coefficient  Atom+Function         Bfn.  Coefficient  Atom+Function  
  ----- ------------  ---------------      ----- ------------  ---------------
   223      0.203369  5 H  s                253     -0.163270  6 F  pz         
   256     -0.161134  6 F  pz               252     -0.140498  6 F  py         
     8     -0.138867  1 C  pz               255     -0.138029  6 F  py         
   307     -0.136680  7 F  py                 4     -0.135227  1 C  s          
   308     -0.134161  7 F  pz               310     -0.134040  7 F  py         

 Vector   22  Occ=2.000000D+00  E=-3.565805D-02
              MO Center= -4.3D-03, -4.9D-02, -5.0D-01, r^2= 2.0D+00
   Bfn.  Coefficient  Atom+Function         Bfn.  Coefficient  Atom+Function  
  ----- ------------  ---------------      ----- ------------  ---------------
   171     -0.238030  4 O  px               174     -0.238653  4 O  px         
   116      0.231790  3 O  px               119      0.232341  3 O  px         
   122      0.162506  3 O  px               177     -0.159356  4 O  px         
   172      0.139321  4 O  py               175      0.139544  4 O  py         
   117     -0.127544  3 O  py               120     -0.127970  3 O  py         

 Vector   23  Occ=2.000000D+00  E=-1.737965D-02
              MO Center=  1.2D-01,  1.9D-01, -2.0D-01, r^2= 2.5D+00
   Bfn.  Coefficient  Atom+Function         Bfn.  Coefficient  Atom+Function  
  ----- ------------  ---------------      ----- ------------  ---------------
   118      0.267469  3 O  pz               121      0.267048  3 O  pz         
   173      0.204506  4 O  pz               176      0.202611  4 O  pz         
   124      0.183848  3 O  pz                63      0.152155  2 C  pz         
    66      0.151976  2 C  pz               179      0.148614  4 O  pz         
    57     -0.125600  2 C  s                127      0.088824  3 O  pz         

 Vector   24  Occ=2.000000D+00  E=-1.301896D-02
              MO Center= -1.0D-01, -2.0D-01, -4.0D-01, r^2= 2.2D+00
   Bfn.  Coefficient  Atom+Function         Bfn.  Coefficient  Atom+Function  
  ----- ------------  ---------------      ----- ------------  ---------------
   173      0.244199  4 O  pz               176      0.243182  4 O  pz         
   118     -0.176099  3 O  pz               121     -0.174280  3 O  pz         
   179      0.174703  4 O  pz               120     -0.155183  3 O  py         
   117     -0.151781  3 O  py               175     -0.145898  4 O  py         
   172     -0.143088  4 O  py               124     -0.135885  3 O  pz         

 Vector   25  Occ=0.000000D+00  E= 1.024353D-01
              MO Center=  5.3D-01,  1.7D+00,  3.1D+00, r^2= 1.4D+01
   Bfn.  Coefficient  Atom+Function         Bfn.  Coefficient  Atom+Function  
  ----- ------------  ---------------      ----- ------------  ---------------
    60      4.993424  2 C  s                224     -3.461866  5 H  s          
     4      2.599527  1 C  s                 59     -1.734890  2 C  s          
   115     -1.313457  3 O  s                 90     -1.172407  2 C  dzz        
    71      1.110989  2 C  py                88     -1.075149  2 C  dyy        
    14      1.042936  1 C  pz                85     -0.902131  2 C  dxx        

 Vector   26  Occ=0.000000D+00  E= 1.399621D-01
              MO Center=  2.7D-01,  5.7D-01,  1.4D+00, r^2= 1.9D+01
   Bfn.  Coefficient  Atom+Function         Bfn.  Coefficient  Atom+Function  
  ----- ------------  ---------------      ----- ------------  ---------------
     5     15.897229  1 C  s                 60    -12.420586  2 C  s          
    72      4.573918  2 C  pz                17      3.448226  1 C  pz         
   223     -3.430702  5 H  s                 59      2.961101  2 C  s          
     4      2.110141  1 C  s                 69      2.059209  2 C  pz         
   224     -1.856365  5 H  s                 88      1.808796  2 C  dyy        

 Vector   27  Occ=0.000000D+00  E= 1.420091D-01
              MO Center= -1.6D-02,  2.5D-01,  1.8D+00, r^2= 1.2D+01
   Bfn.  Coefficient  Atom+Function         Bfn.  Coefficient  Atom+Function  
  ----- ------------  ---------------      ----- ------------  ---------------
     5      4.301075  1 C  s                 60     -3.563454  2 C  s          
    70     -1.666500  2 C  px               250     -1.457341  6 F  s          
    67     -1.256573  2 C  px               223     -1.211948  5 H  s          
    72      1.169444  2 C  pz               305      1.100317  7 F  s          
    59      1.004037  2 C  s                 17      0.991587  1 C  pz         

 Vector   28  Occ=0.000000D+00  E= 1.499561D-01
              MO Center= -4.1D-01, -8.9D-01,  3.7D-01, r^2= 1.7D+01
   Bfn.  Coefficient  Atom+Function         Bfn.  Coefficient  Atom+Function  
  ----- ------------  ---------------      ----- ------------  ---------------
    60      7.969012  2 C  s                  5     -6.195034  1 C  s          
     4      3.077758  1 C  s                223      2.748158  5 H  s          
   170     -2.653489  4 O  s                 17     -2.634420  1 C  pz         
    59     -2.570413  2 C  s                 71     -2.185156  2 C  py         
    72     -1.613072  2 C  pz                68     -1.459426  2 C  py         

 Vector   29  Occ=0.000000D+00  E= 1.684815D-01
              MO Center=  1.5D-01, -6.1D-03,  2.1D-01, r^2= 8.3D+00
   Bfn.  Coefficient  Atom+Function         Bfn.  Coefficient  Atom+Function  
  ----- ------------  ---------------      ----- ------------  ---------------
    60      1.910316  2 C  s                305      1.679806  7 F  s          
   250     -1.286487  6 F  s                 67     -1.241331  2 C  px         
     5     -1.131117  1 C  s                 15     -0.834409  1 C  px         
    68      0.709060  2 C  py                17     -0.682964  1 C  pz         
    86      0.638339  2 C  dxy               12      0.529778  1 C  px         

 Vector   30  Occ=0.000000D+00  E= 1.754904D-01
              MO Center= -1.8D-02,  3.0D-01,  7.1D-01, r^2= 2.1D+01
   Bfn.  Coefficient  Atom+Function         Bfn.  Coefficient  Atom+Function  
  ----- ------------  ---------------      ----- ------------  ---------------
    60      7.630113  2 C  s                  4      4.568418  1 C  s          
   224     -3.633190  5 H  s                 17     -3.127266  1 C  pz         
    71      3.019014  2 C  py                69      2.882283  2 C  pz         
    59     -2.643429  2 C  s                 72      2.450622  2 C  pz         
   170     -2.381203  4 O  s                223     -1.954533  5 H  s          

 Vector   31  Occ=0.000000D+00  E= 1.789359D-01
              MO Center= -2.3D-02, -7.6D-02, -2.3D-01, r^2= 2.0D+01
   Bfn.  Coefficient  Atom+Function         Bfn.  Coefficient  Atom+Function  
  ----- ------------  ---------------      ----- ------------  ---------------
    59      4.553495  2 C  s                115      3.833771  3 O  s          
    16     -3.795989  1 C  py               223     -3.477987  5 H  s          
   170     -2.852325  4 O  s                 72     -2.405867  2 C  pz         
     4     -2.279148  1 C  s                 15     -1.873340  1 C  px         
    17      1.809096  1 C  pz                71      1.705017  2 C  py         

 Vector   32  Occ=0.000000D+00  E= 1.889939D-01
              MO Center=  8.2D-02,  9.3D-02,  3.9D-02, r^2= 1.7D+01
   Bfn.  Coefficient  Atom+Function         Bfn.  Coefficient  Atom+Function  
  ----- ------------  ---------------      ----- ------------  ---------------
    15      3.572313  1 C  px                70     -2.732873  2 C  px         
    16     -1.630574  1 C  py                71      1.405204  2 C  py         
   250     -0.989700  6 F  s                  4      0.973855  1 C  s          
    60      0.902121  2 C  s                115     -0.876027  3 O  s          
   223     -0.761420  5 H  s                180     -0.702803  4 O  px         

 Vector   33  Occ=0.000000D+00  E= 1.934105D-01
              MO Center=  3.2D-01,  1.2D+00,  1.7D+00, r^2= 1.7D+01
   Bfn.  Coefficient  Atom+Function         Bfn.  Coefficient  Atom+Function  
  ----- ------------  ---------------      ----- ------------  ---------------
     5      8.146629  1 C  s                  4      5.539252  1 C  s          
   115     -4.840317  3 O  s                 60      4.592567  2 C  s          
   224     -4.171558  5 H  s                 17      2.991459  1 C  pz         
    90     -1.590087  2 C  dzz               14      1.485138  1 C  pz         
   170     -1.466534  4 O  s                 85     -1.286806  2 C  dxx        

 Vector   34  Occ=0.000000D+00  E= 2.235531D-01
              MO Center= -8.4D-02, -4.3D-01,  4.8D-01, r^2= 1.5D+01
   Bfn.  Coefficient  Atom+Function         Bfn.  Coefficient  Atom+Function  
  ----- ------------  ---------------      ----- ------------  ---------------
    59    -17.874835  2 C  s                  4     17.169836  1 C  s          
   170     -8.208423  4 O  s                115     -6.997903  3 O  s          
    35      6.034746  1 C  dzz              223      5.825728  5 H  s          
    33      4.762057  1 C  dyy               90     -4.625491  2 C  dzz        
    69      4.470254  2 C  pz                88     -4.476241  2 C  dyy        

 Vector   35  Occ=0.000000D+00  E= 2.320703D-01
              MO Center= -4.2D-01, -2.0D-01,  1.3D+00, r^2= 1.3D+01
   Bfn.  Coefficient  Atom+Function         Bfn.  Coefficient  Atom+Function  
  ----- ------------  ---------------      ----- ------------  ---------------
   250      4.977353  6 F  s                 67      2.921863  2 C  px         
   260      2.550133  6 F  px               305     -2.388764  7 F  s          
    59     -2.100375  2 C  s                  5      1.814353  1 C  s          
    87      1.514867  2 C  dxz               68     -1.309568  2 C  py         
   170     -1.300706  4 O  s                223      1.277936  5 H  s          

 Vector   36  Occ=0.000000D+00  E= 2.386887D-01
              MO Center= -5.1D-02, -1.5D-01,  6.8D-01, r^2= 1.7D+01
   Bfn.  Coefficient  Atom+Function         Bfn.  Coefficient  Atom+Function  
  ----- ------------  ---------------      ----- ------------  ---------------
     5     40.284829  1 C  s                 60    -32.122975  2 C  s          
   170     -7.624845  4 O  s                 72      7.552638  2 C  pz         
    17      6.980407  1 C  pz               115     -6.476225  3 O  s          
     4      3.291817  1 C  s                 14     -2.487129  1 C  pz         
    88      2.303370  2 C  dyy               90      2.281478  2 C  dzz        

 Vector   37  Occ=0.000000D+00  E= 2.559384D-01
              MO Center=  2.8D-01,  2.9D-01,  5.6D-01, r^2= 1.3D+01
   Bfn.  Coefficient  Atom+Function         Bfn.  Coefficient  Atom+Function  
  ----- ------------  ---------------      ----- ------------  ---------------
     4      9.482589  1 C  s                115     -9.259129  3 O  s          
     5      8.742274  1 C  s                 60     -7.020454  2 C  s          
   170     -5.622987  4 O  s                 59     -5.432383  2 C  s          
    35      3.777343  1 C  dzz               33      3.205363  1 C  dyy        
    30      3.011103  1 C  dxx              126      2.944801  3 O  py         

 Vector   38  Occ=0.000000D+00  E= 2.748049D-01
              MO Center= -1.2D-01, -5.4D-01,  1.1D+00, r^2= 1.3D+01
   Bfn.  Coefficient  Atom+Function         Bfn.  Coefficient  Atom+Function  
  ----- ------------  ---------------      ----- ------------  ---------------
   223     12.986921  5 H  s                 59     -9.408142  2 C  s          
     4     -8.925094  1 C  s                 69     -7.022870  2 C  pz         
   305      5.581587  7 F  s                250      5.360661  6 F  s          
    88     -4.944235  2 C  dyy               68     -4.827413  2 C  py         
   115      3.672400  3 O  s                 34      3.641619  1 C  dyz        

 Vector   39  Occ=0.000000D+00  E= 2.762143D-01
              MO Center= -3.9D-02,  2.9D-01,  1.1D+00, r^2= 9.1D+00
   Bfn.  Coefficient  Atom+Function         Bfn.  Coefficient  Atom+Function  
  ----- ------------  ---------------      ----- ------------  ---------------
    59      8.464810  2 C  s                223     -6.204370  5 H  s          
    60     -5.112668  2 C  s                  5      3.846210  1 C  s          
   305     -3.451630  7 F  s                 88      3.137143  2 C  dyy        
    67      2.553450  2 C  px                85      2.244495  2 C  dxx        
    90      2.105055  2 C  dzz              232      1.658125  5 H  py         

 Vector   40  Occ=0.000000D+00  E= 2.820769D-01
              MO Center= -1.6D-01, -1.6D-02,  3.3D-01, r^2= 1.5D+01
   Bfn.  Coefficient  Atom+Function         Bfn.  Coefficient  Atom+Function  
  ----- ------------  ---------------      ----- ------------  ---------------
    59      6.191308  2 C  s                 60     -5.070687  2 C  s          
     5      4.581676  1 C  s                  4     -3.466267  1 C  s          
   250     -3.404578  6 F  s                223     -3.271347  5 H  s          
    68      2.903490  2 C  py                33     -2.458016  1 C  dyy        
   170      2.464122  4 O  s                 88      2.271082  2 C  dyy        

 Vector   41  Occ=0.000000D+00  E= 2.864699D-01
              MO Center=  1.2D-01,  2.6D-01,  1.9D-01, r^2= 1.5D+01
   Bfn.  Coefficient  Atom+Function         Bfn.  Coefficient  Atom+Function  
  ----- ------------  ---------------      ----- ------------  ---------------
    59      5.070513  2 C  s                250     -4.883980  6 F  s          
   305     -4.060258  7 F  s                  5      3.732978  1 C  s          
    60     -3.636379  2 C  s                 68     -3.435691  2 C  py         
    34      3.062023  1 C  dyz               69      2.745817  2 C  pz         
    85      2.721272  2 C  dxx               88      2.559529  2 C  dyy        

 Vector   42  Occ=0.000000D+00  E= 2.923099D-01
              MO Center=  2.3D-01, -5.6D-02,  7.0D-01, r^2= 1.4D+01
   Bfn.  Coefficient  Atom+Function         Bfn.  Coefficient  Atom+Function  
  ----- ------------  ---------------      ----- ------------  ---------------
    59     17.738812  2 C  s                 60    -16.369405  2 C  s          
     5     13.161608  1 C  s                  4    -11.185002  1 C  s          
    85      6.040247  2 C  dxx              170      5.955165  4 O  s          
    90      5.647083  2 C  dzz              250     -4.721816  6 F  s          
   305     -4.611890  7 F  s                223     -4.327249  5 H  s          

 Vector   43  Occ=0.000000D+00  E= 3.100117D-01
              MO Center= -2.7D-01, -7.4D-01,  1.6D+00, r^2= 1.3D+01
   Bfn.  Coefficient  Atom+Function         Bfn.  Coefficient  Atom+Function  
  ----- ------------  ---------------      ----- ------------  ---------------
    86     -3.291061  2 C  dxy               59      3.222878  2 C  s          
    87     -2.662532  2 C  dxz              317      2.552284  7 F  pz         
    71      2.528189  2 C  py                 4     -2.499440  1 C  s          
   223     -2.291153  5 H  s                305     -2.230219  7 F  s          
    89      2.017848  2 C  dyz              261     -1.862574  6 F  py         

 Vector   44  Occ=0.000000D+00  E= 3.123765D-01
              MO Center= -1.1D-01, -1.4D-01,  1.9D+00, r^2= 1.3D+01
   Bfn.  Coefficient  Atom+Function         Bfn.  Coefficient  Atom+Function  
  ----- ------------  ---------------      ----- ------------  ---------------
    60     16.999306  2 C  s                 59    -11.361621  2 C  s          
     5    -11.103491  1 C  s                223      6.505390  5 H  s          
    71      4.175865  2 C  py                88     -4.049039  2 C  dyy        
    16     -3.568735  1 C  py               170      3.560573  4 O  s          
    90     -2.965805  2 C  dzz               70      2.845225  2 C  px         

 Vector   45  Occ=0.000000D+00  E= 3.214652D-01
              MO Center= -2.1D-01, -3.2D-01,  1.8D-01, r^2= 1.5D+01
   Bfn.  Coefficient  Atom+Function         Bfn.  Coefficient  Atom+Function  
  ----- ------------  ---------------      ----- ------------  ---------------
    59     14.503751  2 C  s                223    -14.283448  5 H  s          
    60     -8.461342  2 C  s                  5      7.076978  1 C  s          
    69      5.507365  2 C  pz                85      5.144381  2 C  dxx        
    88      4.286896  2 C  dyy              115      4.244763  3 O  s          
   250     -3.738754  6 F  s                 90      3.547681  2 C  dzz        

 Vector   46  Occ=0.000000D+00  E= 3.309506D-01
              MO Center= -6.1D-02, -4.6D-01, -3.8D-01, r^2= 1.4D+01
   Bfn.  Coefficient  Atom+Function         Bfn.  Coefficient  Atom+Function  
  ----- ------------  ---------------      ----- ------------  ---------------
    17      5.209515  1 C  pz               115     -4.667998  3 O  s          
   182     -4.382745  4 O  pz               223      4.142678  5 H  s          
   127     -3.812268  3 O  pz                69     -3.465355  2 C  pz         
    33      3.297135  1 C  dyy               72     -2.846863  2 C  pz         
     5     -2.757696  1 C  s                 14     -2.725876  1 C  pz         

 Vector   47  Occ=0.000000D+00  E= 3.357641D-01
              MO Center= -1.9D-02, -3.5D-01,  5.6D-01, r^2= 1.3D+01
   Bfn.  Coefficient  Atom+Function         Bfn.  Coefficient  Atom+Function  
  ----- ------------  ---------------      ----- ------------  ---------------
    59      5.072365  2 C  s                 69     -5.082007  2 C  pz         
     4     -4.007987  1 C  s                 14     -3.625250  1 C  pz         
   115     -2.994619  3 O  s                 16     -2.799504  1 C  py         
    15      2.617878  1 C  px                72     -2.293437  2 C  pz         
    70     -2.202276  2 C  px               170     -2.060324  4 O  s          

 Vector   48  Occ=0.000000D+00  E= 3.484146D-01
              MO Center= -2.1D-01, -1.5D-01,  1.3D+00, r^2= 1.3D+01
   Bfn.  Coefficient  Atom+Function         Bfn.  Coefficient  Atom+Function  
  ----- ------------  ---------------      ----- ------------  ---------------
   315     -2.411286  7 F  px                15      2.265565  1 C  px         
     5     -2.043269  1 C  s                261      1.995420  6 F  py         
   125     -1.870045  3 O  px               223     -1.834585  5 H  s          
    14      1.787359  1 C  pz                67      1.725199  2 C  px         
    59     -1.563422  2 C  s                170      1.531313  4 O  s          

 Vector   49  Occ=0.000000D+00  E= 3.579581D-01
              MO Center= -3.2D-01, -5.0D-01,  1.3D+00, r^2= 1.5D+01
   Bfn.  Coefficient  Atom+Function         Bfn.  Coefficient  Atom+Function  
  ----- ------------  ---------------      ----- ------------  ---------------
    59     24.285967  2 C  s                  5     22.823682  1 C  s          
    60    -22.930870  2 C  s                  4    -10.624837  1 C  s          
   223     -8.383397  5 H  s                 90      7.193506  2 C  dzz        
   170     -7.120321  4 O  s                 85      6.318116  2 C  dxx        
    69     -5.993183  2 C  pz                14     -5.748966  1 C  pz         

 Vector   50  Occ=0.000000D+00  E= 3.668686D-01
              MO Center= -1.3D-01, -3.0D-01,  4.7D-01, r^2= 1.1D+01
   Bfn.  Coefficient  Atom+Function         Bfn.  Coefficient  Atom+Function  
  ----- ------------  ---------------      ----- ------------  ---------------
     5     14.140087  1 C  s                  4     14.012393  1 C  s          
    59    -13.025976  2 C  s                170     -9.721464  4 O  s          
    90     -4.764546  2 C  dzz               17      4.258335  1 C  pz         
    88     -3.991966  2 C  dyy              223      3.914902  5 H  s          
   115     -3.718009  3 O  s                114     -3.638466  3 O  s          

 Vector   51  Occ=0.000000D+00  E= 3.780245D-01
              MO Center=  2.1D-01,  6.2D-01,  1.2D+00, r^2= 1.4D+01
   Bfn.  Coefficient  Atom+Function         Bfn.  Coefficient  Atom+Function  
  ----- ------------  ---------------      ----- ------------  ---------------
     5     21.079385  1 C  s                115    -14.138897  3 O  s          
   170     -9.401853  4 O  s                223      8.342224  5 H  s          
     4      6.607685  1 C  s                 14     -6.147860  1 C  pz         
    60     -4.745640  2 C  s                 59      4.300064  2 C  s          
    31      4.169723  1 C  dxy              224     -3.973272  5 H  s          

 Vector   52  Occ=0.000000D+00  E= 3.841829D-01
              MO Center= -2.5D-01, -3.6D-01,  5.9D-02, r^2= 1.0D+01
   Bfn.  Coefficient  Atom+Function         Bfn.  Coefficient  Atom+Function  
  ----- ------------  ---------------      ----- ------------  ---------------
    59     -9.631798  2 C  s                  5      8.966354  1 C  s          
   170      8.987190  4 O  s                223      8.252594  5 H  s          
   115     -7.162104  3 O  s                 60     -5.949385  2 C  s          
    13      3.429822  1 C  py                34     -2.982932  1 C  dyz        
    69     -2.876551  2 C  pz               305      2.705419  7 F  s          

 Vector   53  Occ=0.000000D+00  E= 4.029471D-01
              MO Center=  7.0D-02,  2.0D-01,  1.8D+00, r^2= 8.9D+00
   Bfn.  Coefficient  Atom+Function         Bfn.  Coefficient  Atom+Function  
  ----- ------------  ---------------      ----- ------------  ---------------
    67      4.774265  2 C  px               170      3.576532  4 O  s          
     4     -2.817600  1 C  s                231     -2.680142  5 H  px         
   305     -2.556438  7 F  s                250      2.314718  6 F  s          
    15     -2.104744  1 C  px                70      1.998348  2 C  px         
    68     -1.929733  2 C  py               223      1.765295  5 H  s          

 Vector   54  Occ=0.000000D+00  E= 4.163751D-01
              MO Center=  5.2D-02,  5.1D-01,  5.1D-01, r^2= 1.2D+01
   Bfn.  Coefficient  Atom+Function         Bfn.  Coefficient  Atom+Function  
  ----- ------------  ---------------      ----- ------------  ---------------
   115     16.945520  3 O  s                170     12.253640  4 O  s          
     5    -11.011131  1 C  s                  4    -10.638571  1 C  s          
    60      9.394691  2 C  s                 59      9.164774  2 C  s          
    33     -8.202308  1 C  dyy              223     -7.043439  5 H  s          
    30     -6.209810  1 C  dxx               14      4.196764  1 C  pz         

 Vector   55  Occ=0.000000D+00  E= 4.304721D-01
              MO Center=  7.1D-02,  2.5D-01,  1.5D+00, r^2= 1.1D+01
   Bfn.  Coefficient  Atom+Function         Bfn.  Coefficient  Atom+Function  
  ----- ------------  ---------------      ----- ------------  ---------------
     4     19.196589  1 C  s                 60     18.707321  2 C  s          
    59    -15.889951  2 C  s                 14     11.647987  1 C  pz         
     5    -11.139315  1 C  s                 69     10.704750  2 C  pz         
    90     -8.590420  2 C  dzz               35      6.181324  1 C  dzz        
    88     -6.016354  2 C  dyy               85     -5.965472  2 C  dxx        

 Vector   56  Occ=0.000000D+00  E= 4.461875D-01
              MO Center= -2.6D-03, -6.7D-02,  1.8D+00, r^2= 1.1D+01
   Bfn.  Coefficient  Atom+Function         Bfn.  Coefficient  Atom+Function  
  ----- ------------  ---------------      ----- ------------  ---------------
     4     13.979046  1 C  s                223    -11.560211  5 H  s          
   305     11.371668  7 F  s                 68     10.039865  2 C  py         
   250     -8.159012  6 F  s                 14      7.406477  1 C  pz         
    69      7.354139  2 C  pz                86      7.200316  2 C  dxy        
    90     -4.580873  2 C  dzz               35      4.241092  1 C  dzz        

 Vector   57  Occ=0.000000D+00  E= 4.495096D-01
              MO Center= -1.3D-02,  2.0D-01,  1.7D+00, r^2= 1.0D+01
   Bfn.  Coefficient  Atom+Function         Bfn.  Coefficient  Atom+Function  
  ----- ------------  ---------------      ----- ------------  ---------------
     4     19.910475  1 C  s                 69      9.634756  2 C  pz         
    14      8.909178  1 C  pz                59     -8.914451  2 C  s          
    90     -7.370681  2 C  dzz              305     -6.571935  7 F  s          
   223     -6.082267  5 H  s                250      5.955092  6 F  s          
    67      4.862795  2 C  px                35      4.803562  1 C  dzz        

 Vector   58  Occ=0.000000D+00  E= 4.674567D-01
              MO Center=  3.5D-02,  5.4D-01,  1.4D+00, r^2= 9.8D+00
   Bfn.  Coefficient  Atom+Function         Bfn.  Coefficient  Atom+Function  
  ----- ------------  ---------------      ----- ------------  ---------------
   223     35.504950  5 H  s                 59    -26.795752  2 C  s          
    68    -17.391384  2 C  py                67     -9.155998  2 C  px         
   232     -9.094404  5 H  py                 5      7.834599  1 C  s          
    86     -5.779955  2 C  dxy              233     -5.791694  5 H  pz         
   250     -5.720748  6 F  s                305     -4.801870  7 F  s          

 Vector   59  Occ=0.000000D+00  E= 4.816913D-01
              MO Center=  7.8D-02, -3.2D-01,  8.9D-01, r^2= 9.3D+00
   Bfn.  Coefficient  Atom+Function         Bfn.  Coefficient  Atom+Function  
  ----- ------------  ---------------      ----- ------------  ---------------
   223     41.054152  5 H  s                 59    -31.972297  2 C  s          
     5    -21.743328  1 C  s                 60     21.171825  2 C  s          
    68    -17.324401  2 C  py                88    -11.581732  2 C  dyy        
   232     -8.937204  5 H  py                69     -8.217027  2 C  pz         
    67     -6.633959  2 C  px                85     -6.513990  2 C  dxx        

 Vector   60  Occ=0.000000D+00  E= 4.836909D-01
              MO Center= -2.7D-02,  1.3D-01,  2.8D-01, r^2= 9.4D+00
   Bfn.  Coefficient  Atom+Function         Bfn.  Coefficient  Atom+Function  
  ----- ------------  ---------------      ----- ------------  ---------------
    59     19.645765  2 C  s                  4    -12.678696  1 C  s          
   223    -10.984398  5 H  s                  5     -9.682814  1 C  s          
    90      5.446180  2 C  dzz              305     -5.003382  7 F  s          
    32      4.522795  1 C  dxz               68      4.464210  2 C  py         
    69     -4.381306  2 C  pz                87      4.149651  2 C  dxz        

 Vector   61  Occ=0.000000D+00  E= 4.923174D-01
              MO Center=  2.8D-01, -3.4D-02,  8.6D-01, r^2= 8.7D+00
   Bfn.  Coefficient  Atom+Function         Bfn.  Coefficient  Atom+Function  
  ----- ------------  ---------------      ----- ------------  ---------------
   223     33.134017  5 H  s                 59    -19.617844  2 C  s          
    68    -13.926140  2 C  py                88     -7.437135  2 C  dyy        
    69     -6.869362  2 C  pz               232     -6.780185  5 H  py         
    67     -5.953632  2 C  px                14     -4.391977  1 C  pz         
   233     -3.836270  5 H  pz               231     -3.809259  5 H  px         

 Vector   62  Occ=0.000000D+00  E= 5.026071D-01
              MO Center= -1.4D-01, -1.0D-01, -5.7D-01, r^2= 1.0D+01
   Bfn.  Coefficient  Atom+Function         Bfn.  Coefficient  Atom+Function  
  ----- ------------  ---------------      ----- ------------  ---------------
    59     45.473726  2 C  s                  4    -34.454578  1 C  s          
   170     15.433588  4 O  s                 35    -15.135521  1 C  dzz        
    14    -14.739708  1 C  pz               115     13.369398  3 O  s          
    69    -12.397237  2 C  pz               223    -11.077838  5 H  s          
     5     -8.180609  1 C  s                 30     -6.492615  1 C  dxx        

 Vector   63  Occ=0.000000D+00  E= 5.234936D-01
              MO Center=  6.5D-02,  4.7D-01,  1.4D+00, r^2= 8.6D+00
   Bfn.  Coefficient  Atom+Function         Bfn.  Coefficient  Atom+Function  
  ----- ------------  ---------------      ----- ------------  ---------------
    60     25.598333  2 C  s                  5    -20.222083  1 C  s          
    59    -11.044370  2 C  s                 85    -10.843195  2 C  dxx        
   250      8.805221  6 F  s                 88     -7.226065  2 C  dyy        
   223      7.255016  5 H  s                305      6.815029  7 F  s          
    90     -6.212471  2 C  dzz               69     -5.204986  2 C  pz         

 Vector   64  Occ=0.000000D+00  E= 5.467642D-01
              MO Center= -2.3D-01, -8.1D-01,  1.6D+00, r^2= 1.0D+01
   Bfn.  Coefficient  Atom+Function         Bfn.  Coefficient  Atom+Function  
  ----- ------------  ---------------      ----- ------------  ---------------
    59     49.863711  2 C  s                223    -39.644372  5 H  s          
   250    -20.649367  6 F  s                305    -19.037139  7 F  s          
    88     15.665068  2 C  dyy               85     14.144118  2 C  dxx        
    90     13.075755  2 C  dzz                5     10.171159  1 C  s          
   115     -9.100234  3 O  s                 69      7.056207  2 C  pz         

 Vector   65  Occ=0.000000D+00  E= 5.618640D-01
              MO Center= -5.0D-02,  3.8D-02,  1.4D+00, r^2= 8.6D+00
   Bfn.  Coefficient  Atom+Function         Bfn.  Coefficient  Atom+Function  
  ----- ------------  ---------------      ----- ------------  ---------------
    59     16.497196  2 C  s                223    -13.032091  5 H  s          
    87     10.420905  2 C  dxz               89      6.664555  2 C  dyz        
     4     -5.980686  1 C  s                232      4.819719  5 H  py         
     5     -4.591489  1 C  s                 67      4.262887  2 C  px         
    12      3.924881  1 C  px               250      3.221208  6 F  s          

 Vector   66  Occ=0.000000D+00  E= 5.689107D-01
              MO Center=  4.1D-03, -3.6D-02,  1.1D+00, r^2= 9.0D+00
   Bfn.  Coefficient  Atom+Function         Bfn.  Coefficient  Atom+Function  
  ----- ------------  ---------------      ----- ------------  ---------------
    59    -13.506567  2 C  s                  4     13.048527  1 C  s          
    89    -10.444072  2 C  dyz                5      7.269063  1 C  s          
   223      5.601186  5 H  s                115     -5.548266  3 O  s          
   250     -4.959256  6 F  s                 14      4.567521  1 C  pz         
   231     -4.292701  5 H  px                35      3.954367  1 C  dzz        

 Vector   67  Occ=0.000000D+00  E= 5.799278D-01
              MO Center= -1.8D-01,  9.5D-02,  2.1D-01, r^2= 6.9D+00
   Bfn.  Coefficient  Atom+Function         Bfn.  Coefficient  Atom+Function  
  ----- ------------  ---------------      ----- ------------  ---------------
     5     26.539288  1 C  s                 60    -19.633099  2 C  s          
   170    -10.923001  4 O  s                115     -7.013250  3 O  s          
    89      6.941500  2 C  dyz              250      4.924771  6 F  s          
     4      4.802146  1 C  s                 17      4.649088  1 C  pz         
    87      4.299105  2 C  dxz               14     -4.189101  1 C  pz         

 Vector   68  Occ=0.000000D+00  E= 5.916825D-01
              MO Center= -2.5D-01, -4.9D-02,  1.1D+00, r^2= 8.5D+00
   Bfn.  Coefficient  Atom+Function         Bfn.  Coefficient  Atom+Function  
  ----- ------------  ---------------      ----- ------------  ---------------
    59     10.285643  2 C  s                250    -10.010295  6 F  s          
   223     -9.692803  5 H  s                 67     -4.907404  2 C  px         
    12     -4.541236  1 C  px                68      4.094286  2 C  py         
   305      3.817232  7 F  s                 89      3.672327  2 C  dyz        
    32     -3.215748  1 C  dxz               85      3.144525  2 C  dxx        

 Vector   69  Occ=0.000000D+00  E= 6.049426D-01
              MO Center=  3.6D-02,  3.1D-01,  7.3D-01, r^2= 8.4D+00
   Bfn.  Coefficient  Atom+Function         Bfn.  Coefficient  Atom+Function  
  ----- ------------  ---------------      ----- ------------  ---------------
   305     13.663445  7 F  s                  5     11.154633  1 C  s          
   170     -9.127565  4 O  s                 60     -8.583170  2 C  s          
   223      8.066999  5 H  s                115     -7.232610  3 O  s          
     4      7.164125  1 C  s                 59     -7.068353  2 C  s          
    89      6.634497  2 C  dyz               86      6.389509  2 C  dxy        

 Vector   70  Occ=0.000000D+00  E= 6.097077D-01
              MO Center=  3.2D-01,  3.7D-01,  4.8D-01, r^2= 8.9D+00
   Bfn.  Coefficient  Atom+Function         Bfn.  Coefficient  Atom+Function  
  ----- ------------  ---------------      ----- ------------  ---------------
   250     -5.646668  6 F  s                 85      5.552067  2 C  dxx        
    12     -4.827076  1 C  px                88     -4.459512  2 C  dyy        
    34     -4.413191  1 C  dyz               32     -4.286797  1 C  dxz        
    67      4.157334  2 C  px                89     -3.559893  2 C  dyz        
    30     -3.495296  1 C  dxx               31     -3.438793  1 C  dxy        

 Vector   71  Occ=0.000000D+00  E= 6.289655D-01
              MO Center=  3.6D-02,  2.9D-02, -4.4D-01, r^2= 7.9D+00
   Bfn.  Coefficient  Atom+Function         Bfn.  Coefficient  Atom+Function  
  ----- ------------  ---------------      ----- ------------  ---------------
   223     25.082336  5 H  s                 59    -17.933677  2 C  s          
    34    -17.494681  1 C  dyz              115    -10.400869  3 O  s          
   170      9.148459  4 O  s                 32     -9.011310  1 C  dxz        
    89     -8.008408  2 C  dyz              232     -5.630776  5 H  py         
    60      5.482883  2 C  s                 88     -4.902088  2 C  dyy        

 Vector   72  Occ=0.000000D+00  E= 6.436118D-01
              MO Center= -1.6D-01, -1.3D-01,  4.5D-01, r^2= 8.8D+00
   Bfn.  Coefficient  Atom+Function         Bfn.  Coefficient  Atom+Function  
  ----- ------------  ---------------      ----- ------------  ---------------
     4     31.234103  1 C  s                 59    -18.362603  2 C  s          
   170    -16.504233  4 O  s                 31     13.369734  1 C  dxy        
     5     12.857183  1 C  s                 13    -11.948664  1 C  py         
    33     11.546498  1 C  dyy              223     11.546797  5 H  s          
   169     -9.511654  4 O  s                115     -9.402432  3 O  s          

 Vector   73  Occ=0.000000D+00  E= 6.498945D-01
              MO Center= -5.2D-02, -8.2D-02,  7.6D-01, r^2= 8.6D+00
   Bfn.  Coefficient  Atom+Function         Bfn.  Coefficient  Atom+Function  
  ----- ------------  ---------------      ----- ------------  ---------------
   223     16.827112  5 H  s                 59    -15.178635  2 C  s          
    13    -12.668004  1 C  py               115      8.717891  3 O  s          
     5     -8.120958  1 C  s                 69      7.062109  2 C  pz         
    12     -6.648839  1 C  px               114      6.580138  3 O  s          
    31     -5.272237  1 C  dxy              232     -4.592451  5 H  py         

 Vector   74  Occ=0.000000D+00  E= 6.715132D-01
              MO Center=  8.9D-02,  2.4D-01,  4.2D-01, r^2= 7.4D+00
   Bfn.  Coefficient  Atom+Function         Bfn.  Coefficient  Atom+Function  
  ----- ------------  ---------------      ----- ------------  ---------------
   223     44.187473  5 H  s                 59    -38.963390  2 C  s          
     4     22.097034  1 C  s                115    -10.811650  3 O  s          
    89    -10.464105  2 C  dyz               34    -10.408434  1 C  dyz        
    88    -10.232484  2 C  dyy               90    -10.210958  2 C  dzz        
   232     -7.980622  5 H  py                85     -7.541163  2 C  dxx        

 Vector   75  Occ=0.000000D+00  E= 6.977024D-01
              MO Center= -1.6D-01, -3.8D-01,  3.4D-01, r^2= 7.1D+00
   Bfn.  Coefficient  Atom+Function         Bfn.  Coefficient  Atom+Function  
  ----- ------------  ---------------      ----- ------------  ---------------
    67     13.509748  2 C  px                59    -12.163638  2 C  s          
   223     11.941349  5 H  s                 86     -9.499011  2 C  dxy        
    12     -8.526713  1 C  px                68     -8.083191  2 C  py         
    87     -7.201855  2 C  dxz                4      7.106645  1 C  s          
    32     -6.523872  1 C  dxz              250      6.319317  6 F  s          

 Vector   76  Occ=0.000000D+00  E= 7.165856D-01
              MO Center=  1.1D-01,  4.5D-01,  9.9D-01, r^2= 8.4D+00
   Bfn.  Coefficient  Atom+Function         Bfn.  Coefficient  Atom+Function  
  ----- ------------  ---------------      ----- ------------  ---------------
     4     44.225208  1 C  s                 69     22.791407  2 C  pz         
   223    -20.469508  5 H  s                115    -11.017294  3 O  s          
    31      9.931072  1 C  dxy               33      9.898125  1 C  dyy        
   170     -9.275181  4 O  s                  5      8.132748  1 C  s          
    13      7.282178  1 C  py                59     -6.909085  2 C  s          

 Vector   77  Occ=0.000000D+00  E= 7.581053D-01
              MO Center= -6.8D-02, -1.1D-01,  9.1D-03, r^2= 8.1D+00
   Bfn.  Coefficient  Atom+Function         Bfn.  Coefficient  Atom+Function  
  ----- ------------  ---------------      ----- ------------  ---------------
     4     45.361112  1 C  s                 59    -40.501070  2 C  s          
    14     33.237547  1 C  pz                69     22.737151  2 C  pz         
    68     17.649221  2 C  py               223    -12.819649  5 H  s          
    35      9.929141  1 C  dzz               90     -9.122025  2 C  dzz        
    86      7.590809  2 C  dxy               67      6.735236  2 C  px         

 Vector   78  Occ=0.000000D+00  E= 7.826156D-01
              MO Center=  5.9D-02,  4.6D-02,  3.8D-01, r^2= 8.0D+00
   Bfn.  Coefficient  Atom+Function         Bfn.  Coefficient  Atom+Function  
  ----- ------------  ---------------      ----- ------------  ---------------
    59     31.206428  2 C  s                 14    -15.753156  1 C  pz         
     4    -13.205039  1 C  s                 69    -13.269906  2 C  pz         
   115     11.705826  3 O  s                 35    -11.350742  1 C  dzz        
    60     -9.973981  2 C  s                 90      9.988741  2 C  dzz        
    30     -9.832414  1 C  dxx              170      9.568592  4 O  s          

 Vector   79  Occ=0.000000D+00  E= 7.931376D-01
              MO Center= -1.3D-01, -3.7D-01,  1.1D+00, r^2= 7.8D+00
   Bfn.  Coefficient  Atom+Function         Bfn.  Coefficient  Atom+Function  
  ----- ------------  ---------------      ----- ------------  ---------------
    59     54.863514  2 C  s                223    -45.101555  5 H  s          
     4    -27.864538  1 C  s                 14    -20.051880  1 C  pz         
    68     18.345077  2 C  py                88     17.607650  2 C  dyy        
    90     16.618529  2 C  dzz               60    -16.246974  2 C  s          
    85     11.802627  2 C  dxx               69     -8.680948  2 C  pz         

 Vector   80  Occ=0.000000D+00  E= 8.063295D-01
              MO Center=  1.5D-01,  4.3D-01,  5.4D-01, r^2= 7.3D+00
   Bfn.  Coefficient  Atom+Function         Bfn.  Coefficient  Atom+Function  
  ----- ------------  ---------------      ----- ------------  ---------------
   223     15.479689  5 H  s                 59     -8.097004  2 C  s          
    68     -7.818850  2 C  py                86     -6.702669  2 C  dxy        
    69     -5.535316  2 C  pz                14     -4.146200  1 C  pz         
   232     -3.522283  5 H  py                85     -3.080216  2 C  dxx        
     4     -2.921877  1 C  s                 67     -2.518870  2 C  px         

 Vector   81  Occ=0.000000D+00  E= 8.110788D-01
              MO Center= -2.9D-02, -2.2D-01,  4.8D-01, r^2= 7.4D+00
   Bfn.  Coefficient  Atom+Function         Bfn.  Coefficient  Atom+Function  
  ----- ------------  ---------------      ----- ------------  ---------------
    59     13.636966  2 C  s                223    -10.490076  5 H  s          
     4      9.459379  1 C  s                 69      6.211080  2 C  pz         
    60      4.496641  2 C  s                 68      4.355940  2 C  py         
   304     -3.648785  7 F  s                 90     -3.574105  2 C  dzz        
    85     -3.382112  2 C  dxx               53     -3.348614  1 C  fyyz       

 Vector   82  Occ=0.000000D+00  E= 8.173899D-01
              MO Center= -7.3D-02, -3.8D-02,  7.0D-01, r^2= 7.7D+00
   Bfn.  Coefficient  Atom+Function         Bfn.  Coefficient  Atom+Function  
  ----- ------------  ---------------      ----- ------------  ---------------
    59     66.536033  2 C  s                223    -56.668623  5 H  s          
    68     27.458159  2 C  py                88     11.647715  2 C  dyy        
   232     11.599891  5 H  py                85      8.701145  2 C  dxx        
    67      8.279838  2 C  px                90      7.774361  2 C  dzz        
     4     -7.654113  1 C  s                 13     -7.014682  1 C  py         

 Vector   83  Occ=0.000000D+00  E= 8.373672D-01
              MO Center=  4.9D-01,  4.7D-01,  3.2D-01, r^2= 6.5D+00
   Bfn.  Coefficient  Atom+Function         Bfn.  Coefficient  Atom+Function  
  ----- ------------  ---------------      ----- ------------  ---------------
    59     25.699686  2 C  s                223    -18.262772  5 H  s          
     4     -9.072893  1 C  s                 14     -6.417546  1 C  pz         
    88      5.801321  2 C  dyy               68      5.728226  2 C  py         
    60     -5.434338  2 C  s                 90      5.343284  2 C  dzz        
   305     -5.120242  7 F  s                 85      4.784972  2 C  dxx        

 Vector   84  Occ=0.000000D+00  E= 8.565638D-01
              MO Center=  8.0D-02,  3.5D-01,  3.9D-01, r^2= 8.6D+00
   Bfn.  Coefficient  Atom+Function         Bfn.  Coefficient  Atom+Function  
  ----- ------------  ---------------      ----- ------------  ---------------
    59     25.557564  2 C  s                223    -20.923097  5 H  s          
    68     17.186867  2 C  py                67      9.231093  2 C  px         
   169     -5.955788  4 O  s                115     -5.114162  3 O  s          
   250      4.348668  6 F  s                 34     -4.039915  1 C  dyz        
    86      3.860234  2 C  dxy              170      3.855863  4 O  s          

 Vector   85  Occ=0.000000D+00  E= 8.675432D-01
              MO Center= -2.0D-01, -7.3D-02, -2.2D-01, r^2= 7.7D+00
   Bfn.  Coefficient  Atom+Function         Bfn.  Coefficient  Atom+Function  
  ----- ------------  ---------------      ----- ------------  ---------------
   223     32.461800  5 H  s                 59    -22.154463  2 C  s          
   170      9.106197  4 O  s                 68     -8.896221  2 C  py         
    88     -8.246757  2 C  dyy               69     -6.939873  2 C  pz         
    67     -6.602104  2 C  px               115     -6.332987  3 O  s          
   232     -5.313736  5 H  py                34     -5.204798  1 C  dyz        

 Vector   86  Occ=0.000000D+00  E= 8.702547D-01
              MO Center=  1.8D-01, -2.4D-02, -2.3D-01, r^2= 7.4D+00
   Bfn.  Coefficient  Atom+Function         Bfn.  Coefficient  Atom+Function  
  ----- ------------  ---------------      ----- ------------  ---------------
     4     12.586115  1 C  s                 68      9.667456  2 C  py         
   223     -8.072762  5 H  s                 69      7.390969  2 C  pz         
   170     -6.699507  4 O  s                 14      6.389767  1 C  pz         
    59     -6.290636  2 C  s                305      4.480082  7 F  s          
    35      4.206621  1 C  dzz               13     -3.538376  1 C  py         

 Vector   87  Occ=0.000000D+00  E= 8.731899D-01
              MO Center= -2.6D-01, -2.6D-01, -7.4D-02, r^2= 7.2D+00
[...]
              MO Center= -4.9D-01, -5.1D-01,  2.0D+00, r^2= 2.2D+00
   Bfn.  Coefficient  Atom+Function         Bfn.  Coefficient  Atom+Function  
  ----- ------------  ---------------      ----- ------------  ---------------
   223     14.784262  5 H  s                 68    -11.161099  2 C  py         
   254    -10.138812  6 F  px                59      8.724415  2 C  s          
   257     -8.296070  6 F  px               247     -7.233412  6 F  s          
   256      6.242396  6 F  pz               302     -6.189027  7 F  s          
   169     -6.008498  4 O  s                310     -5.893446  7 F  py         

 Vector  352  Occ=0.000000D+00  E= 2.334968D+01
              MO Center= -2.9D-01, -5.4D-01,  2.0D+00, r^2= 1.7D+00
   Bfn.  Coefficient  Atom+Function         Bfn.  Coefficient  Atom+Function  
  ----- ------------  ---------------      ----- ------------  ---------------
   249     11.898425  6 F  s                304    -10.734117  7 F  s          
    67     -5.769903  2 C  px               254     -5.341738  6 F  px         
   310      4.014131  7 F  py               333      3.948789  7 F  dyy        
   272     -3.828196  6 F  dyy              275     -3.784861  6 F  dxx        
   274     -3.761001  6 F  dzz              324      3.703716  7 F  dxx        

 Vector  353  Occ=0.000000D+00  E= 2.387809D+01
              MO Center= -2.5D-01, -5.5D-01,  2.0D+00, r^2= 1.9D+00
   Bfn.  Coefficient  Atom+Function         Bfn.  Coefficient  Atom+Function  
  ----- ------------  ---------------      ----- ------------  ---------------
   223     25.812433  5 H  s                 68    -16.493884  2 C  py         
   304      9.805917  7 F  s                249      9.572263  6 F  s          
    88     -8.846808  2 C  dyy              169     -7.776413  4 O  s          
   257     -7.106212  6 F  px                 4      6.895470  1 C  s          
    90     -6.602674  2 C  dzz               67     -6.408927  2 C  px         

 Vector  354  Occ=0.000000D+00  E= 2.852088D+01
              MO Center= -1.5D-02,  1.7D-02,  5.1D-01, r^2= 2.1D+00
   Bfn.  Coefficient  Atom+Function         Bfn.  Coefficient  Atom+Function  
  ----- ------------  ---------------      ----- ------------  ---------------
     2     25.322625  1 C  s                 57     17.755265  2 C  s          
   169    -13.405473  4 O  s                  1     12.478475  1 C  s          
   114    -10.639783  3 O  s                 33     -9.703602  1 C  dyy        
    69     -9.416008  2 C  pz                 4     -9.222569  1 C  s          
    56      8.717930  2 C  s                170      7.983862  4 O  s          

 Vector  355  Occ=0.000000D+00  E= 2.892048D+01
              MO Center= -1.1D-02,  5.9D-02,  1.0D+00, r^2= 1.9D+00
   Bfn.  Coefficient  Atom+Function         Bfn.  Coefficient  Atom+Function  
  ----- ------------  ---------------      ----- ------------  ---------------
    57     25.464089  2 C  s                169     18.033600  4 O  s          
     2    -17.706717  1 C  s                 53     12.937137  1 C  fyyz       
    50     12.694675  1 C  fxyz              56     12.545508  2 C  s          
   222    -11.285124  5 H  s                 59    -10.535980  2 C  s          
    25     -8.779888  1 C  dxy                1     -8.729826  1 C  s          


 center of mass
 --------------
 x =  -0.19819370 y =  -0.41199978 z =   1.59902970

 moments of inertia (a.u.)
 ------------------
         650.593730750936         -22.671654571189          45.292328222004
         -22.671654571189         672.031260610725          88.368978232385
          45.292328222004          88.368978232385         358.339401444495

     Multipole analysis of the density
     ---------------------------------

     L   x y z        total         alpha         beta         nuclear
     -   - - -        -----         -----         ----         -------
     0   0 0 0     -1.000000    -24.000000    -24.000000     47.000000

     1   1 0 0      0.174259      4.372983      4.372983     -8.571708
     1   0 1 0      0.529435      9.042999      9.042999    -17.556563
     1   0 0 1      0.222083    -36.825903    -36.825903     73.873889

     2   2 0 0    -29.167666    -61.042273    -61.042273     92.916879
     2   1 1 0     -2.410860     -9.578087     -9.578087     16.745315
     2   1 0 1      1.089339     17.819388     17.819388    -34.549437
     2   0 2 0    -31.228239    -61.732488    -61.732488     92.236736
     2   0 1 1      2.350940     35.090555     35.090555    -67.830169
     2   0 0 2    -32.597345   -193.319477   -193.319477    354.041609

 Line search: 
     step= 1.00 grad=-2.9D-07 hess=-3.6D-07 energy=   -426.772978 mode=accept  
 new step= 1.00                   predicted energy=   -426.772978

          --------
          Step   9
          --------


                         Geometry "geometry" -> "geometry"
                         ---------------------------------

 Output coordinates in angstroms (scale by  1.889725989 to convert to a.u.)

  No.       Tag          Charge          X              Y              Z
 ---- ---------------- ---------- -------------- -------------- --------------
    1 C                    6.0000    -0.00260774    -0.00530338    -0.03866014
    2 C                    6.0000    -0.03318808     0.03015617     1.52822347
    3 O                    8.0000     0.59087541     0.99421703    -0.53239744
    4 O                    8.0000    -0.54752501    -0.99681569    -0.57686474
    5 H                    1.0000     0.33815139     0.98345360     1.93868023
    6 F                    9.0000    -1.31399565    -0.17049732     2.04563152
    7 F                    9.0000     0.75775868    -0.98531541     2.07552610

      Atomic Mass 
      ----------- 

      C                 12.000000
      O                 15.994910
      H                  1.007825
      F                 18.998400


 Effective nuclear repulsion energy (a.u.)     233.0807650219

            Nuclear Dipole moment (a.u.) 
            ----------------------------
        X                 Y               Z
 ---------------- ---------------- ----------------
    -8.5717084265   -17.5565626548    73.8738889447


                                 NWChem DFT Module
                                 -----------------




 Summary of "ao basis" -> "ao basis" (cartesian)
 ------------------------------------------------------------------------------
       Tag                 Description            Shells   Functions and Types
 ---------------- ------------------------------  ------  ---------------------
 C                        aug-cc-pVTZ               14       55   5s4p3d2f
 O                        aug-cc-pVTZ               14       55   5s4p3d2f
 H                        aug-cc-pVTZ                9       25   4s3p2d
 F                        aug-cc-pVTZ               14       55   5s4p3d2f



  The DFT is already converged 

         Total DFT energy =   -426.772977728983


            General Information
            -------------------
          SCF calculation type: DFT
          Wavefunction type:  closed shell.
          No. of atoms     :     7
          No. of electrons :    48
           Alpha electrons :    24
            Beta electrons :    24
          Charge           :    -1
          Spin multiplicity:     1
          Use of symmetry is: off; symmetry adaption is: off
          Maximum number of iterations: 200
          AO basis - number of functions:   355
                     number of shells:    93
          Convergence on energy requested:  1.00D-06
          Convergence on density requested:  1.00D-05
          Convergence on gradient requested:  5.00D-04

              XC Information
              --------------
          PerdewBurkeErnzerhof Exchange Functional  1.000          
            Perdew 1991 LDA Correlation Functional  1.000 local    
           PerdewBurkeErnz. Correlation Functional  1.000 non-local

             Grid Information
             ----------------
          Grid used for XC integration:  medium    
          Radial quadrature: Mura-Knowles        
          Angular quadrature: Lebedev. 
          Tag              B.-S. Rad. Rad. Pts. Rad. Cut. Ang. Pts.
          ---              ---------- --------- --------- ---------
          C                   0.70       49          13.0       434
          O                   0.60       49          14.0       434
          H                   0.35       45          13.0       434
          F                   0.50       49          12.0       434
          Grid pruning is: on 
          Number of quadrature shells:   339
          Spatial weights used:  Erf1

          Convergence Information
          -----------------------
          Convergence aids based upon iterative change in 
          total energy or number of iterations. 
          Levelshifting, if invoked, occurs when the 
          HOMO/LUMO gap drops below (HL_TOL):  1.00D-02
          DIIS, if invoked, will attempt to extrapolate 
          using up to (NFOCK): 10 stored Fock matrices.

                    Damping(40%)  Levelshifting(0.0)       DIIS
                  --------------- ------------------- ---------------
          dE  on:    start            ASAP                start   
          dE off:  200 iters        200 iters           200 iters 


      Screening Tolerance Information
      -------------------------------
          Density screening/tol_rho:  1.00D-10
          AO Gaussian exp screening on grid/accAOfunc:  14
          CD Gaussian exp screening on grid/accCDfunc:  20
          XC Gaussian exp screening on grid/accXCfunc:  20
          Schwarz screening/accCoul:  1.00D-08



                            NWChem DFT Gradient Module
                            --------------------------



  charge          =  -1.00
  wavefunction    = closed shell



                         DFT ENERGY GRADIENTS

    atom               coordinates                        gradient
                 x          y          z           x          y          z
   1 C      -0.004928  -0.010022  -0.073057   -0.000082  -0.000122  -0.000035
   2 C      -0.062716   0.056987   2.887924   -0.000008  -0.000060   0.000038
   3 O       1.116593   1.878798  -1.006085    0.000018   0.000077  -0.000056
   4 O      -1.034672  -1.883709  -1.090116    0.000068   0.000069   0.000060
   5 H       0.639013   1.858458   3.663574    0.000054   0.000044  -0.000004
   6 F      -2.483092  -0.322193   3.865683   -0.000014  -0.000012  -0.000001
   7 F       1.431956  -1.861976   3.922176   -0.000035   0.000004  -0.000003

                 ----------------------------------------
                 |  Time  |  1-e(secs)   |  2-e(secs)   |
                 ----------------------------------------
                 |  CPU   |       0.01   |      15.82   |
                 ----------------------------------------
                 |  WALL  |       0.01   |      15.89   |
                 ----------------------------------------

  Step       Energy      Delta E   Gmax     Grms     Xrms     Xmax   Walltime
  ---- ---------------- -------- -------- -------- -------- -------- --------
@    9    -426.77297773 -6.5D-07  0.00012  0.00005  0.00048  0.00116    866.5
                                     ok       ok       ok       ok  


      ----------------------
      Optimization converged
      ----------------------


  Step       Energy      Delta E   Gmax     Grms     Xrms     Xmax   Walltime
  ---- ---------------- -------- -------- -------- -------- -------- --------
@    9    -426.77297773 -6.5D-07  0.00012  0.00005  0.00048  0.00116    866.5
                                     ok       ok       ok       ok  



                         Geometry "geometry" -> "geometry"
                         ---------------------------------

 Output coordinates in angstroms (scale by  1.889725989 to convert to a.u.)

  No.       Tag          Charge          X              Y              Z
 ---- ---------------- ---------- -------------- -------------- --------------
    1 C                    6.0000    -0.00260774    -0.00530338    -0.03866014
    2 C                    6.0000    -0.03318808     0.03015617     1.52822347
    3 O                    8.0000     0.59087541     0.99421703    -0.53239744
    4 O                    8.0000    -0.54752501    -0.99681569    -0.57686474
    5 H                    1.0000     0.33815139     0.98345360     1.93868023
    6 F                    9.0000    -1.31399565    -0.17049732     2.04563152
    7 F                    9.0000     0.75775868    -0.98531541     2.07552610

      Atomic Mass 
      ----------- 

      C                 12.000000
      O                 15.994910
      H                  1.007825
      F                 18.998400


 Effective nuclear repulsion energy (a.u.)     233.0807650219

            Nuclear Dipole moment (a.u.) 
            ----------------------------
        X                 Y               Z
 ---------------- ---------------- ----------------
    -8.5717084265   -17.5565626548    73.8738889447

 ==============================================================================
                                internuclear distances
 ------------------------------------------------------------------------------
       center one      |      center two      | atomic units |  angstroms
 ------------------------------------------------------------------------------
    2 C                |   1 C                |     2.96230  |     1.56758
    3 O                |   1 C                |     2.38663  |     1.26295
    4 O                |   1 C                |     2.36759  |     1.25287
    5 H                |   2 C                |     2.08311  |     1.10234
    6 F                |   2 C                |     2.63780  |     1.39587
    7 F                |   2 C                |     2.64313  |     1.39868
 ------------------------------------------------------------------------------
                         number of included internuclear distances:          6
 ==============================================================================



 ==============================================================================
                                 internuclear angles
 ------------------------------------------------------------------------------
        center 1       |       center 2       |       center 3       |  degrees
 ------------------------------------------------------------------------------
    2 C                |   1 C                |   3 O                |   112.46
    2 C                |   1 C                |   4 O                |   116.03
    3 O                |   1 C                |   4 O                |   131.51
    1 C                |   2 C                |   5 H                |   112.65
    1 C                |   2 C                |   6 F                |   112.65
    1 C                |   2 C                |   7 F                |   111.33
    5 H                |   2 C                |   6 F                |   107.18
    5 H                |   2 C                |   7 F                |   106.96
    6 F                |   2 C                |   7 F                |   105.63
 ------------------------------------------------------------------------------
                            number of included internuclear angles:          9
 ==============================================================================




 Task  times  cpu:      854.5s     wall:      866.3s


                                NWChem Input Module
                                -------------------


 Summary of allocated global arrays
-----------------------------------
  No active global arrays


MA_summarize_allocated_blocks: starting scan ...
MA_summarize_allocated_blocks: scan completed: 0 heap blocks, 0 stack blocks
MA usage statistics:

	allocation statistics:
					      heap	     stack
					      ----	     -----
	current number of blocks	         0	         0
	maximum number of blocks	        24	        53
	current total bytes		         0	         0
	maximum total bytes		 268988784	  42611000
	maximum total K-bytes		    268989	     42611
	maximum total M-bytes		       269	        43


                                     CITATION
                                     --------
                Please cite the following reference when publishing
                           results obtained with NWChem:

          E. Apra, E. J. Bylaska, W. A. de Jong, N. Govind, K. Kowalski,
       T. P. Straatsma, M. Valiev, H. J. J. van Dam, Y. Alexeev, J. Anchell,
       V. Anisimov, F. W. Aquino, R. Atta-Fynn, J. Autschbach, N. P. Bauman,
     J. C. Becca, D. E. Bernholdt, K. Bhaskaran-Nair, S. Bogatko, P. Borowski,
         J. Boschen, J. Brabec, A. Bruner, E. Cauet, Y. Chen, G. N. Chuev,
      C. J. Cramer, J. Daily, M. J. O. Deegan, T. H. Dunning Jr., M. Dupuis,
   K. G. Dyall, G. I. Fann, S. A. Fischer, A. Fonari, H. Fruchtl, L. Gagliardi,
      J. Garza, N. Gawande, S. Ghosh, K. Glaesemann, A. W. Gotz, J. Hammond,
       V. Helms, E. D. Hermes, K. Hirao, S. Hirata, M. Jacquelin, L. Jensen,
   B. G. Johnson, H. Jonsson, R. A. Kendall, M. Klemm, R. Kobayashi, V. Konkov,
      S. Krishnamoorthy, M. Krishnan, Z. Lin, R. D. Lins, R. J. Littlefield,
      A. J. Logsdail, K. Lopata, W. Ma, A. V. Marenich, J. Martin del Campo,
   D. Mejia-Rodriguez, J. E. Moore, J. M. Mullin, T. Nakajima, D. R. Nascimento,
    J. A. Nichols, P. J. Nichols, J. Nieplocha, A. Otero-de-la-Roza, B. Palmer,
    A. Panyala, T. Pirojsirikul, B. Peng, R. Peverati, J. Pittner, L. Pollack,
   R. M. Richard, P. Sadayappan, G. C. Schatz, W. A. Shelton, D. W. Silverstein,
   D. M. A. Smith, T. A. Soares, D. Song, M. Swart, H. L. Taylor, G. S. Thomas,
            V. Tipparaju, D. G. Truhlar, K. Tsemekhman, T. Van Voorhis,
      A. Vazquez-Mayagoitia, P. Verma, O. Villa, A. Vishnu, K. D. Vogiatzis,
        D. Wang, J. H. Weare, M. J. Williamson, T. L. Windus, K. Wolinski,
        A. T. Wong, Q. Wu, C. Yang, Q. Yu, M. Zacharias, Z. Zhang, Y. Zhao,
                                and R. J. Harrison
                        "NWChem: Past, present, and future
                         J. Chem. Phys. 152, 184102 (2020)
                               doi:10.1063/5.0004997

                                      AUTHORS
                                      -------
  E. Apra, E. J. Bylaska, N. Govind, K. Kowalski, M. Valiev, D. Mejia-Rodriguez,
       A. Kunitsa, N. P. Bauman, A. Panyala, W. A. de Jong, T. P. Straatsma,
   H. J. J. van Dam, D. Wang, T. L. Windus, J. Hammond, J. Autschbach, A. Woods,
    K. Bhaskaran-Nair, J. Brabec, K. Lopata, S. A. Fischer, S. Krishnamoorthy,
     M. Jacquelin, W. Ma, M. Klemm, O. Villa, Y. Chen, V. Anisimov, F. Aquino,
     S. Hirata, M. T. Hackler, E. Hermes, L. Jensen, J. E. Moore, J. C. Becca,
      V. Konjkov, T. Risthaus, M. Malagoli, A. Marenich, A. Otero-de-la-Roza,
        J. Mullin, P. Nichols, R. Peverati, J. Pittner, Y. Zhao, P.-D. Fan,
        A. Fonari, M. J. Williamson, R. J. Harrison, J. R. Rehr, M. Dupuis,
     D. Silverstein, D. M. A. Smith, J. Nieplocha, V. Tipparaju, M. Krishnan,
     B. E. Van Kuiken, A. Vazquez-Mayagoitia, M. Swart, Q. Wu, T. Van Voorhis,
     A. A. Auer, M. Nooijen, L. D. Crosby, E. Brown, G. Cisneros, G. I. Fann,
   H. Fruchtl, J. Garza, K. Hirao, R. A. Kendall, J. A. Nichols, K. Tsemekhman,
    K. Wolinski, J. Anchell, D. E. Bernholdt, P. Borowski, T. Clark, D. Clerc,
   H. Dachsel, M. J. O. Deegan, K. Dyall, D. Elwood, E. Glendening, M. Gutowski,
   A. C. Hess, J. Jaffe, B. G. Johnson, J. Ju, R. Kobayashi, R. Kutteh, Z. Lin,
   R. Littlefield, X. Long, B. Meng, T. Nakajima, S. Niu, L. Pollack, M. Rosing,
   K. Glaesemann, G. Sandrone, M. Stave, H. Taylor, G. Thomas, J. H. van Lenthe,
                               A. T. Wong, Z. Zhang.

 Total times  cpu:      854.6s     wall:      866.5s
