 argument  1 = 0e/mol.nwi
                                         
                                         


             Northwest Computational Chemistry Package (NWChem) 7.2.2
             --------------------------------------------------------


                    Environmental Molecular Sciences Laboratory
                       Pacific Northwest National Laboratory
                                Richland, WA 99352

                              Copyright (c) 1994-2022
                       Pacific Northwest National Laboratory
                            Battelle Memorial Institute

             NWChem is an open-source computational chemistry package
                        distributed under the terms of the
                      Educational Community License (ECL) 2.0
             A copy of the license is included with this distribution
                              in the LICENSE.TXT file

                                  ACKNOWLEDGMENT
                                  --------------

            This software and its documentation were developed at the
            EMSL at Pacific Northwest National Laboratory, a multiprogram
            national laboratory, operated for the U.S. Department of Energy
            by Battelle under Contract Number DE-AC05-76RL01830. Support
            for this work was provided by the Department of Energy Office
            of Biological and Environmental Research, Office of Basic
            Energy Sciences, and the Office of Advanced Scientific Computing.


           Job information
           ---------------

    hostname        = r011.ib.bridges2.psc.edu
    program         = nwchem
    date            = Tue Oct  1 14:30:08 2024

    compiled        = Mon_Mar_18_17:03:37_2024
    source          = /ocean/projects/pscstaff/mmadrid/nwchem-7.2.2
    nwchem branch   = 7.2.2
    nwchem revision = 74936fb9
    ga revision     = 5.8.0
    use scalapack   = F
    input           = 0e/mol.nwi
    prefix          = dft.
    data base       = .//dft.db
    status          = startup
    nproc           =       15
    time left       =     -1s



           Memory information
           ------------------

    heap     =   67108858 doubles =    512.0 Mbytes
    stack    =   67108863 doubles =    512.0 Mbytes
    global   =  134217728 doubles =   1024.0 Mbytes (distinct from heap & stack)
    total    =  268435449 doubles =   2048.0 Mbytes
    verify   = yes
    hardfail = no 


           Directory information
           ---------------------

  0 permanent = ./
  0 scratch   = /jet/home/hmt47/nwchem_scratch/




                                NWChem Input Module
                                -------------------


  library name resolved from: environment
  library file name is: </opt/packages/nwchem/nwchem7.2.2/share/nwchem/libraries/>
  


 Summary of "ao basis" -> "" (cartesian)
 ------------------------------------------------------------------------------
       Tag                 Description            Shells   Functions and Types
 ---------------- ------------------------------  ------  ---------------------
 *                        aug-cc-pVTZ                 on all atoms 


  pbe96 is a nonlocal functional; adding pw91lda local functional. 

 Scaling coordinates for geometry "geometry" by  1.889725989
 (inverse scale =  0.529177249)



                             Geometry "geometry" -> ""
                             -------------------------

 Output coordinates in angstroms (scale by  1.889725989 to convert to a.u.)

  No.       Tag          Charge          X              Y              Z
 ---- ---------------- ---------- -------------- -------------- --------------
    1 N                    7.0000    -0.00273617    -0.00346072     0.04425357
    2 O                    8.0000     0.54456431     0.93062828    -0.61624410
    3 O                    8.0000    -0.53066413    -0.94303456    -0.62416747

      Atomic Mass 
      ----------- 

      N                 14.003070
      O                 15.994910


 Effective nuclear repulsion energy (a.u.)      62.4115361229

            Nuclear Dipole moment (a.u.) 
            ----------------------------
        X                 Y               Z
 ---------------- ---------------- ----------------
     0.1739459702    -0.2333344456   -18.1669139937


            XYZ format geometry
            -------------------
     3
 geometry
 N                    -0.00273617    -0.00346072     0.04425357
 O                     0.54456431     0.93062828    -0.61624410
 O                    -0.53066413    -0.94303456    -0.62416747

 ==============================================================================
                                internuclear distances
 ------------------------------------------------------------------------------
       center one      |      center two      | atomic units |  angstroms
 ------------------------------------------------------------------------------
    2 O                |   1 N                |     2.39654  |     1.26819
    3 O                |   1 N                |     2.39652  |     1.26819
 ------------------------------------------------------------------------------
                         number of included internuclear distances:          2
 ==============================================================================



 ==============================================================================
                                 internuclear angles
 ------------------------------------------------------------------------------
        center 1       |       center 2       |       center 3       |  degrees
 ------------------------------------------------------------------------------
    2 O                |   1 N                |   3 O                |   116.80
 ------------------------------------------------------------------------------
                            number of included internuclear angles:          1
 ==============================================================================




                                 NWChem DFT Module
                                 -----------------


                      Basis "ao basis" -> "ao basis" (cartesian)
                      -----
  N (Nitrogen)
  ------------
            Exponent  Coefficients 
       -------------- ---------------------------------------------------------
  1 S  1.14200000E+04  0.000523
  1 S  1.71200000E+03  0.004045
  1 S  3.89300000E+02  0.020775
  1 S  1.10000000E+02  0.080727
  1 S  3.55700000E+01  0.233074
  1 S  1.25400000E+01  0.433501
  1 S  4.64400000E+00  0.347472
  1 S  5.11800000E-01 -0.008508

  2 S  1.14200000E+04 -0.000115
  2 S  1.71200000E+03 -0.000895
  2 S  3.89300000E+02 -0.004624
  2 S  1.10000000E+02 -0.018528
  2 S  3.55700000E+01 -0.057339
  2 S  1.25400000E+01 -0.132076
  2 S  4.64400000E+00 -0.172510
  2 S  5.11800000E-01  0.599944

  3 S  1.29300000E+00  1.000000

  4 S  1.78700000E-01  1.000000

  5 S  5.76000000E-02  1.000000

  6 P  2.66300000E+01  0.014670
  6 P  5.94800000E+00  0.091764
  6 P  1.74200000E+00  0.298683

  7 P  5.55000000E-01  1.000000

  8 P  1.72500000E-01  1.000000

  9 P  4.91000000E-02  1.000000

 10 D  1.65400000E+00  1.000000

 11 D  4.69000000E-01  1.000000

 12 D  1.51000000E-01  1.000000

 13 F  1.09300000E+00  1.000000

 14 F  3.64000000E-01  1.000000

  O (Oxygen)
  ----------
            Exponent  Coefficients 
       -------------- ---------------------------------------------------------
  1 S  1.53300000E+04  0.000508
  1 S  2.29900000E+03  0.003929
  1 S  5.22400000E+02  0.020243
  1 S  1.47300000E+02  0.079181
  1 S  4.75500000E+01  0.230687
  1 S  1.67600000E+01  0.433118
  1 S  6.20700000E+00  0.350260
  1 S  6.88200000E-01 -0.008154

  2 S  1.53300000E+04 -0.000115
  2 S  2.29900000E+03 -0.000895
  2 S  5.22400000E+02 -0.004636
  2 S  1.47300000E+02 -0.018724
  2 S  4.75500000E+01 -0.058463
  2 S  1.67600000E+01 -0.136463
  2 S  6.20700000E+00 -0.175740
  2 S  6.88200000E-01  0.603418

  3 S  1.75200000E+00  1.000000

  4 S  2.38400000E-01  1.000000

  5 S  7.37600000E-02  1.000000

  6 P  3.44600000E+01  0.015928
  6 P  7.74900000E+00  0.099740
  6 P  2.28000000E+00  0.310492

  7 P  7.15600000E-01  1.000000

  8 P  2.14000000E-01  1.000000

  9 P  5.97400000E-02  1.000000

 10 D  2.31400000E+00  1.000000

 11 D  6.45000000E-01  1.000000

 12 D  2.14000000E-01  1.000000

 13 F  1.42800000E+00  1.000000

 14 F  5.00000000E-01  1.000000



 Summary of "ao basis" -> "ao basis" (cartesian)
 ------------------------------------------------------------------------------
       Tag                 Description            Shells   Functions and Types
 ---------------- ------------------------------  ------  ---------------------
 N                        aug-cc-pVTZ               14       55   5s4p3d2f
 O                        aug-cc-pVTZ               14       55   5s4p3d2f




 Summary of "ao basis" -> "ao basis" (cartesian)
 ------------------------------------------------------------------------------
       Tag                 Description            Shells   Functions and Types
 ---------------- ------------------------------  ------  ---------------------
 N                        aug-cc-pVTZ               14       55   5s4p3d2f
 O                        aug-cc-pVTZ               14       55   5s4p3d2f


  Caching 1-el integrals 

            General Information
            -------------------
          SCF calculation type: DFT
          Wavefunction type:  spin polarized.
          No. of atoms     :     3
          No. of electrons :    23
           Alpha electrons :    12
            Beta electrons :    11
          Charge           :     0
          Spin multiplicity:     2
          Use of symmetry is: off; symmetry adaption is: off
          Maximum number of iterations: 200
          AO basis - number of functions:   165
                     number of shells:    42
          Convergence on energy requested:  1.00D-06
          Convergence on density requested:  1.00D-05
          Convergence on gradient requested:  5.00D-04

              XC Information
              --------------
          PerdewBurkeErnzerhof Exchange Functional  1.000          
            Perdew 1991 LDA Correlation Functional  1.000 local    
           PerdewBurkeErnz. Correlation Functional  1.000 non-local

             Grid Information
             ----------------
          Grid used for XC integration:  medium    
          Radial quadrature: Mura-Knowles        
          Angular quadrature: Lebedev. 
          Tag              B.-S. Rad. Rad. Pts. Rad. Cut. Ang. Pts.
          ---              ---------- --------- --------- ---------
          N                   0.65       49           9.0       434
          O                   0.60       49          10.0       434
          Grid pruning is: on 
          Number of quadrature shells:   147
          Spatial weights used:  Erf1

          Convergence Information
          -----------------------
          Convergence aids based upon iterative change in 
          total energy or number of iterations. 
          Levelshifting, if invoked, occurs when the 
          HOMO/LUMO gap drops below (HL_TOL):  1.00D-02
          DIIS, if invoked, will attempt to extrapolate 
          using up to (NFOCK): 10 stored Fock matrices.

                    Damping(40%)  Levelshifting(0.0)       DIIS
                  --------------- ------------------- ---------------
          dE  on:    start            0.00D+00            start   
          dE off:  200 iters          0.00D+00          200 iters 


      Screening Tolerance Information
      -------------------------------
          Density screening/tol_rho:  1.00D-10
          AO Gaussian exp screening on grid/accAOfunc:  14
          CD Gaussian exp screening on grid/accCDfunc:  20
          XC Gaussian exp screening on grid/accXCfunc:  20
          Schwarz screening/accCoul:  1.00D-08


 Forcing the number of linearly dependent vectors to be  0

      Superposition of Atomic Density Guess
      -------------------------------------

 Sum of atomic energies:        -203.87269715
   Time after variat. SCF:      0.4
   Time prior to 1st pass:      0.4

 Grid_pts file          = /jet/home/hmt47/nwchem_scratch//dft.gridpts.00
 Record size in doubles =  12289        No. of grid_pts per rec  =   3070
 Max. records in memory =      3        Max. recs in file   =  67550051


           Memory utilization after 1st SCF pass: 
           Heap Space remaining (MW):       33.51            33513970
          Stack Space remaining (MW):       67.11            67107444

   convergence    iter        energy       DeltaE   RMS-Dens  Diis-err    time
 ---------------- ----- ----------------- --------- --------- ---------  ------
 d=40,ls=0.0,diis     1   -205.3402794763 -2.68D+02  5.21D-03  5.65D+00     0.9
                                                     4.96D-03  4.76D+00
 d=40,ls=0.0,diis     2   -205.0869016932  2.53D-01  3.63D-03  9.93D-01     1.4
                                                     5.08D-03  8.37D-01
 d=40,ls=0.0,diis     3   -204.7385231612  3.48D-01  1.28D-03  6.52D-01     1.9
                                                     3.03D-03  5.60D-01
 d=40,ls=0.0,diis     4   -204.9019093137 -1.63D-01  5.16D-04  1.34D-01     2.4
                                                     1.22D-03  1.18D-01
 d=40,ls=0.0,diis     5   -204.9381064165 -3.62D-02  3.26D-04  3.78D-02     2.9
                                                     5.95D-04  3.46D-02
  Resetting Diis
 d=40,ls=0.0,diis     6   -204.9502098819 -1.21D-02  1.81D-04  1.04D-02     3.4
                                                     3.82D-04  9.76D-03
 d=40,ls=0.0,diis     7   -204.9550802546 -4.87D-03  2.36D-04  1.46D-03     4.0
                                                     3.27D-04  1.33D-03
 d=40,ls=0.0,diis     8   -204.9544666547  6.14D-04  1.27D-04  4.06D-03     4.5
                                                     2.82D-04  4.17D-03
 d=40,ls=0.0,diis     9   -204.9560669474 -1.60D-03  5.64D-05  1.13D-03     5.0
                                                     1.10D-04  1.16D-03
 d=40,ls=0.0,diis    10   -204.9567718110 -7.05D-04  2.04D-05  8.61D-05     5.5
                                                     2.00D-05  8.65D-05
 d=40,ls=0.0,diis    11   -204.9569439092 -1.72D-04  1.07D-05  2.19D-05     6.0
                                                     9.59D-06  2.23D-05
 d=40,ls=0.0,diis    12   -204.9570121759 -6.83D-05  4.24D-06  3.88D-06     6.5
                                                     3.98D-06  3.94D-06
 d=40,ls=0.0,diis    13   -204.9570384980 -2.63D-05  1.93D-06  6.37D-07     7.0
                                                     1.70D-06  6.49D-07
 d=40,ls=0.0,diis    14   -204.9570488391 -1.03D-05  8.17D-07  1.00D-07     7.5
                                                     6.88D-07  1.01D-07
 d=40,ls=0.0,diis    15   -204.9570529431 -4.10D-06  3.27D-07  1.59D-08     8.0
                                                     2.71D-07  1.61D-08
 d=40,ls=0.0,diis    16   -204.9570545798 -1.64D-06  1.31D-07  2.54D-09     8.5
                                                     1.09D-07  2.56D-09
 d=40,ls=0.0,diis    17   -204.9570552337 -6.54D-07  5.31D-08  4.07D-10     9.0
                                                     4.35D-08  4.09D-10


         Total DFT energy =     -204.957055233674
      One electron energy =     -403.938035166121
           Coulomb energy =      160.197190619126
    Exchange-Corr. energy =      -23.627746809603
 Nuclear repulsion energy =       62.411536122924

 Numeric. integr. density =       22.999998865729

     Total iterative time =      8.6s



                    DFT Final Alpha Molecular Orbital Analysis
                    ------------------------------------------

 Vector    1  Occ=1.000000D+00  E=-1.886902D+01
              MO Center= -8.2D-02, -1.6D-01, -6.2D-01, r^2= 1.1D+00
   Bfn.  Coefficient  Atom+Function         Bfn.  Coefficient  Atom+Function  
  ----- ------------  ---------------      ----- ------------  ---------------
   111      0.746715  3 O  s                 56      0.631725  2 O  s          
   113      0.048423  3 O  s                 58      0.040948  2 O  s          
     5      0.030565  1 N  s                114     -0.028079  3 O  s          
   115     -0.027015  3 O  s          

 Vector    2  Occ=1.000000D+00  E=-1.886901D+01
              MO Center=  9.6D-02,  1.5D-01, -6.2D-01, r^2= 1.1D+00
   Bfn.  Coefficient  Atom+Function         Bfn.  Coefficient  Atom+Function  
  ----- ------------  ---------------      ----- ------------  ---------------
    56      0.746122  2 O  s                111     -0.631024  3 O  s          
    58      0.048486  2 O  s                113     -0.041024  3 O  s          
    60     -0.029384  2 O  s                115      0.025254  3 O  s          

 Vector    3  Occ=1.000000D+00  E=-1.422655D+01
              MO Center= -2.7D-03, -3.5D-03,  4.4D-02, r^2= 2.0D-02
   Bfn.  Coefficient  Atom+Function         Bfn.  Coefficient  Atom+Function  
  ----- ------------  ---------------      ----- ------------  ---------------
     1      0.991005  1 N  s                  3      0.057261  1 N  s          
     2      0.039663  1 N  s                  4     -0.039834  1 N  s          
    14      0.026214  1 N  pz         

 Vector    4  Occ=1.000000D+00  E=-1.153672D+00
              MO Center=  3.3D-03, -5.2D-03, -3.7D-01, r^2= 8.4D-01
   Bfn.  Coefficient  Atom+Function         Bfn.  Coefficient  Atom+Function  
  ----- ------------  ---------------      ----- ------------  ---------------
     2      0.315636  1 N  s                 57      0.256480  2 O  s          
   112      0.256494  3 O  s                 59      0.153307  2 O  s          
   114      0.153317  3 O  s                  4      0.141914  1 N  s          
     3      0.084808  1 N  s                  8     -0.076506  1 N  pz         
    58      0.071064  2 O  s                113      0.071068  3 O  s          

 Vector    5  Occ=1.000000D+00  E=-9.988818D-01
              MO Center=  3.9D-03, -5.3D-03, -4.1D-01, r^2= 1.2D+00
   Bfn.  Coefficient  Atom+Function         Bfn.  Coefficient  Atom+Function  
  ----- ------------  ---------------      ----- ------------  ---------------
    57      0.337521  2 O  s                112     -0.337508  3 O  s          
    59      0.256972  2 O  s                114     -0.256962  3 O  s          
     7      0.142262  1 N  py                10      0.102159  1 N  py         
    58      0.092119  2 O  s                113     -0.092116  3 O  s          
     6      0.081639  1 N  px                 9      0.058626  1 N  px         

 Vector    6  Occ=1.000000D+00  E=-6.319763D-01
              MO Center=  4.3D-03, -5.5D-03, -4.4D-01, r^2= 1.8D+00
   Bfn.  Coefficient  Atom+Function         Bfn.  Coefficient  Atom+Function  
  ----- ------------  ---------------      ----- ------------  ---------------
     2      0.359054  1 N  s                  4      0.352101  1 N  s          
    59     -0.285818  2 O  s                114     -0.285822  3 O  s          
    57     -0.267348  2 O  s                112     -0.267350  3 O  s          
     5      0.118556  1 N  s                  3      0.105570  1 N  s          
    60     -0.094657  2 O  s                115     -0.094658  3 O  s          

 Vector    7  Occ=1.000000D+00  E=-5.109893D-01
              MO Center=  7.1D-03, -6.2D-03, -6.3D-01, r^2= 1.8D+00
   Bfn.  Coefficient  Atom+Function         Bfn.  Coefficient  Atom+Function  
  ----- ------------  ---------------      ----- ------------  ---------------
     7      0.187912  1 N  py                57     -0.172279  2 O  s          
   112      0.172276  3 O  s                 59     -0.163946  2 O  s          
   114      0.163947  3 O  s                 10      0.162853  1 N  py         
   118     -0.162619  3 O  pz                63      0.161536  2 O  pz         
   121     -0.157426  3 O  pz                66      0.156443  2 O  pz         

 Vector    8  Occ=1.000000D+00  E=-4.935830D-01
              MO Center=  4.4D-04, -4.4D-03, -1.7D-01, r^2= 1.4D+00
   Bfn.  Coefficient  Atom+Function         Bfn.  Coefficient  Atom+Function  
  ----- ------------  ---------------      ----- ------------  ---------------
     8      0.261637  1 N  pz                11      0.248789  1 N  pz         
    62      0.145410  2 O  py               117     -0.144714  3 O  py         
    65      0.143575  2 O  py               120     -0.142874  3 O  py         
    14      0.127805  1 N  pz                59      0.092313  2 O  s          
   114      0.092319  3 O  s                 63      0.085745  2 O  pz         

 Vector    9  Occ=1.000000D+00  E=-4.925787D-01
              MO Center=  2.1D-03, -4.9D-03, -2.9D-01, r^2= 1.2D+00
   Bfn.  Coefficient  Atom+Function         Bfn.  Coefficient  Atom+Function  
  ----- ------------  ---------------      ----- ------------  ---------------
     6      0.233532  1 N  px                 9      0.229388  1 N  px         
    61      0.157863  2 O  px                64      0.157456  2 O  px         
   116      0.157869  3 O  px               119      0.157462  3 O  px         
     7     -0.134032  1 N  py                10     -0.131655  1 N  py         
    12      0.109794  1 N  px                62     -0.090603  2 O  py         

 Vector   10  Occ=1.000000D+00  E=-3.348235D-01
              MO Center=  6.6D-03, -6.1D-03, -6.0D-01, r^2= 1.7D+00
   Bfn.  Coefficient  Atom+Function         Bfn.  Coefficient  Atom+Function  
  ----- ------------  ---------------      ----- ------------  ---------------
    64      0.250985  2 O  px               119     -0.250980  3 O  px         
    61      0.248572  2 O  px               116     -0.248567  3 O  px         
    67      0.161177  2 O  px               122     -0.161173  3 O  px         
    65     -0.144049  2 O  py               120      0.144046  3 O  py         
    62     -0.142664  2 O  py               117      0.142661  3 O  py         

 Vector   11  Occ=1.000000D+00  E=-3.133568D-01
              MO Center=  6.0D-03, -5.9D-03, -5.6D-01, r^2= 1.8D+00
   Bfn.  Coefficient  Atom+Function         Bfn.  Coefficient  Atom+Function  
  ----- ------------  ---------------      ----- ------------  ---------------
    66      0.207733  2 O  pz               121     -0.206149  3 O  pz         
    63      0.200313  2 O  pz               118     -0.198702  3 O  pz         
    62      0.190319  2 O  py               117      0.188666  3 O  py         
    65      0.187066  2 O  py               120      0.185351  3 O  py         
    69      0.143900  2 O  pz               124     -0.142849  3 O  pz         

 Vector   12  Occ=1.000000D+00  E=-2.930847D-01
              MO Center=  3.0D-03, -5.1D-03, -3.5D-01, r^2= 1.7D+00
   Bfn.  Coefficient  Atom+Function         Bfn.  Coefficient  Atom+Function  
  ----- ------------  ---------------      ----- ------------  ---------------
     4      0.319941  1 N  s                 63     -0.251900  2 O  pz         
    66     -0.252667  2 O  pz               118     -0.251830  3 O  pz         
   121     -0.252539  3 O  pz                11      0.205608  1 N  pz         
     8      0.198325  1 N  pz                69     -0.177020  2 O  pz         
   124     -0.177131  3 O  pz                 2      0.173235  1 N  s          

 Vector   13  Occ=0.000000D+00  E=-1.639127D-01
              MO Center=  2.2D-03, -4.9D-03, -3.0D-01, r^2= 1.5D+00
   Bfn.  Coefficient  Atom+Function         Bfn.  Coefficient  Atom+Function  
  ----- ------------  ---------------      ----- ------------  ---------------
     9      0.300128  1 N  px                 6      0.279090  1 N  px         
    12      0.242489  1 N  px                64     -0.201871  2 O  px         
   119     -0.201873  3 O  px                61     -0.195319  2 O  px         
   116     -0.195321  3 O  px                67     -0.180108  2 O  px         
   122     -0.180111  3 O  px                10     -0.172254  1 N  py         

 Vector   14  Occ=0.000000D+00  E= 1.188398D-02
              MO Center=  5.8D-03, -5.9D-03, -5.4D-01, r^2= 8.8D+00
   Bfn.  Coefficient  Atom+Function         Bfn.  Coefficient  Atom+Function  
  ----- ------------  ---------------      ----- ------------  ---------------
     5      5.792739  1 N  s                 60     -2.421494  2 O  s          
   115     -2.421541  3 O  s                  4      1.468488  1 N  s          
    17     -0.693235  1 N  pz                14     -0.625245  1 N  pz         
    59     -0.623393  2 O  s                114     -0.623406  3 O  s          
   126     -0.600670  3 O  py                71      0.597444  2 O  py         

 Vector   15  Occ=0.000000D+00  E= 3.792821D-02
              MO Center=  1.3D-03, -4.6D-03, -2.3D-01, r^2= 1.2D+01
   Bfn.  Coefficient  Atom+Function         Bfn.  Coefficient  Atom+Function  
  ----- ------------  ---------------      ----- ------------  ---------------
    60      2.978195  2 O  s                115     -2.977883  3 O  s          
    16     -1.916674  1 N  py                13     -1.143002  1 N  py         
    15     -1.099914  1 N  px                59      0.812635  2 O  s          
   114     -0.812560  3 O  s                 12     -0.655929  1 N  px         
   126     -0.618087  3 O  py                71     -0.613263  2 O  py         

 Vector   16  Occ=0.000000D+00  E= 4.058882D-02
              MO Center= -1.1D-02, -1.2D-03,  5.9D-01, r^2= 9.3D+00
   Bfn.  Coefficient  Atom+Function         Bfn.  Coefficient  Atom+Function  
  ----- ------------  ---------------      ----- ------------  ---------------
     5      3.039174  1 N  s                 60     -2.456276  2 O  s          
   115     -2.456684  3 O  s                 17     -1.855204  1 N  pz         
     4      1.626606  1 N  s                 59     -0.635757  2 O  s          
   114     -0.635868  3 O  s                 14     -0.601999  1 N  pz         
    71      0.521609  2 O  py               126     -0.523585  3 O  py         

 Vector   17  Occ=0.000000D+00  E= 5.302645D-02
              MO Center= -4.2D-03, -3.1D-03,  1.4D-01, r^2= 8.5D+00
   Bfn.  Coefficient  Atom+Function         Bfn.  Coefficient  Atom+Function  
  ----- ------------  ---------------      ----- ------------  ---------------
    15      1.093014  1 N  px                16     -0.627320  1 N  py         
    12     -0.506939  1 N  px                13      0.290946  1 N  py         
    51      0.152468  1 N  fxzz              46      0.151128  1 N  fxxx       
    49      0.150945  1 N  fxyy              47     -0.104320  1 N  fxxy       
    54     -0.087509  1 N  fyzz              52     -0.080841  1 N  fyyy       

 Vector   18  Occ=0.000000D+00  E= 9.728498D-02
              MO Center=  1.0D-02, -7.2D-03, -8.6D-01, r^2= 7.7D+00
   Bfn.  Coefficient  Atom+Function         Bfn.  Coefficient  Atom+Function  
  ----- ------------  ---------------      ----- ------------  ---------------
     5      1.404191  1 N  s                 14      0.923005  1 N  pz         
     4     -0.862711  1 N  s                 60     -0.684934  2 O  s          
   115     -0.684812  3 O  s                 71     -0.647520  2 O  py         
   126      0.643503  3 O  py                35     -0.526484  1 N  dzz        
    72     -0.489717  2 O  pz               127     -0.484297  3 O  pz         

 Vector   19  Occ=0.000000D+00  E= 1.096978D-01
              MO Center=  4.5D-03, -5.6D-03, -4.6D-01, r^2= 1.1D+01
   Bfn.  Coefficient  Atom+Function         Bfn.  Coefficient  Atom+Function  
  ----- ------------  ---------------      ----- ------------  ---------------
    16      1.064712  1 N  py               127     -0.957805  3 O  pz         
    72      0.952496  2 O  pz                13     -0.678516  1 N  py         
   126     -0.629853  3 O  py                71     -0.621891  2 O  py         
    15      0.610999  1 N  px                12     -0.389376  1 N  px         
    70     -0.373067  2 O  px                60     -0.350529  2 O  s          

 Vector   20  Occ=0.000000D+00  E= 1.179623D-01
              MO Center=  4.5D-03, -5.5D-03, -4.5D-01, r^2= 1.0D+01
   Bfn.  Coefficient  Atom+Function         Bfn.  Coefficient  Atom+Function  
  ----- ------------  ---------------      ----- ------------  ---------------
     4      5.204664  1 N  s                 17      2.578651  1 N  pz         
     5     -1.853769  1 N  s                 59     -1.760887  2 O  s          
   114     -1.760885  3 O  s                 14     -1.585710  1 N  pz         
    72     -1.553351  2 O  pz               127     -1.556795  3 O  pz         
    33      1.178041  1 N  dyy              123     -1.071253  3 O  py         

 Vector   21  Occ=0.000000D+00  E= 1.209906D-01
              MO Center=  7.6D-03, -6.4D-03, -6.7D-01, r^2= 1.0D+01
   Bfn.  Coefficient  Atom+Function         Bfn.  Coefficient  Atom+Function  
  ----- ------------  ---------------      ----- ------------  ---------------
    70      1.202399  2 O  px               125     -1.202408  3 O  px         
    71     -0.690103  2 O  py               126      0.690105  3 O  py         
    31     -0.245488  1 N  dxy               30     -0.210066  1 N  dxx        
    33      0.210087  1 N  dyy              142     -0.129354  3 O  dxz        
    87      0.125927  2 O  dxz               67     -0.122754  2 O  px         

 Vector   22  Occ=0.000000D+00  E= 1.321924D-01
              MO Center=  2.9D-03, -5.1D-03, -3.4D-01, r^2= 1.0D+01
   Bfn.  Coefficient  Atom+Function         Bfn.  Coefficient  Atom+Function  
  ----- ------------  ---------------      ----- ------------  ---------------
    15      2.609868  1 N  px                70     -1.685430  2 O  px         
   125     -1.685442  3 O  px                16     -1.497896  1 N  py         
    71      0.967330  2 O  py               126      0.967335  3 O  py         
    67      0.266508  2 O  px               122      0.266494  3 O  px         
    12      0.167983  1 N  px                68     -0.152952  2 O  py         

 Vector   23  Occ=0.000000D+00  E= 1.602452D-01
              MO Center=  1.0D-03, -3.9D-03, -1.9D-01, r^2= 5.8D+00
   Bfn.  Coefficient  Atom+Function         Bfn.  Coefficient  Atom+Function  
  ----- ------------  ---------------      ----- ------------  ---------------
     5      4.164325  1 N  s                  4      3.039744  1 N  s          
    60     -2.794231  2 O  s                115     -2.792794  3 O  s          
    17     -2.028619  1 N  pz                14     -1.553161  1 N  pz         
    59     -0.961653  2 O  s                114     -0.960968  3 O  s          
    71      0.937733  2 O  py               126     -0.933740  3 O  py         

 Vector   24  Occ=0.000000D+00  E= 1.675628D-01
              MO Center=  3.4D-03, -5.8D-03, -4.0D-01, r^2= 8.5D+00
   Bfn.  Coefficient  Atom+Function         Bfn.  Coefficient  Atom+Function  
  ----- ------------  ---------------      ----- ------------  ---------------
    60      2.143829  2 O  s                115     -2.145633  3 O  s          
    71     -1.999284  2 O  py               126     -1.993472  3 O  py         
    13     -1.915071  1 N  py                16      1.493940  1 N  py         
    59      1.182177  2 O  s                114     -1.182806  3 O  s          
   125     -1.157008  3 O  px                34      1.144189  1 N  dyz        

 Vector   25  Occ=0.000000D+00  E= 1.930723D-01
              MO Center=  2.4D-03, -5.0D-03, -3.1D-01, r^2= 9.1D+00
   Bfn.  Coefficient  Atom+Function         Bfn.  Coefficient  Atom+Function  
  ----- ------------  ---------------      ----- ------------  ---------------
    16      4.310834  1 N  py                60     -3.977231  2 O  s          
   115      3.978016  3 O  s                 15      2.473831  1 N  px         
    72     -1.827120  2 O  pz               127      1.817386  3 O  pz         
    71     -1.159402  2 O  py               126     -1.144194  3 O  py         
    13      0.841110  1 N  py                34     -0.738916  1 N  dyz        

 Vector   26  Occ=0.000000D+00  E= 2.195186D-01
              MO Center=  1.4D-02, -8.0D-03, -1.1D+00, r^2= 9.1D+00
   Bfn.  Coefficient  Atom+Function         Bfn.  Coefficient  Atom+Function  
  ----- ------------  ---------------      ----- ------------  ---------------
     5     14.892131  1 N  s                 60    -10.266591  2 O  s          
   115    -10.266281  3 O  s                 17     -2.662581  1 N  pz         
   126     -1.494206  3 O  py                71      1.486681  2 O  py         
    59      1.201638  2 O  s                114      1.201682  3 O  s          
   127     -0.919047  3 O  pz                72     -0.906513  2 O  pz         

 Vector   27  Occ=0.000000D+00  E= 2.582053D-01
              MO Center=  2.0D-03, -4.8D-03, -2.8D-01, r^2= 8.9D+00
   Bfn.  Coefficient  Atom+Function         Bfn.  Coefficient  Atom+Function  
  ----- ------------  ---------------      ----- ------------  ---------------
    60      8.752126  2 O  s                115     -8.752246  3 O  s          
    16     -2.948599  1 N  py                15     -1.692096  1 N  px         
    59     -1.480844  2 O  s                114      1.481034  3 O  s          
   126     -1.166463  3 O  py                71     -1.157061  2 O  py         
   127     -1.143021  3 O  pz                72      1.133170  2 O  pz         

 Vector   28  Occ=0.000000D+00  E= 3.262141D-01
              MO Center= -1.7D-02,  6.4D-04,  1.0D+00, r^2= 5.7D+00
   Bfn.  Coefficient  Atom+Function         Bfn.  Coefficient  Atom+Function  
  ----- ------------  ---------------      ----- ------------  ---------------
     4      4.028536  1 N  s                 35      3.483166  1 N  dzz        
    14     -2.746863  1 N  pz                33      2.663264  1 N  dyy        
    59     -2.379273  2 O  s                114     -2.379158  3 O  s          
    30      2.147820  1 N  dxx               60     -2.086818  2 O  s          
   115     -2.086957  3 O  s                 68      1.745484  2 O  py         

 Vector   29  Occ=0.000000D+00  E= 3.439368D-01
              MO Center= -6.3D-03, -2.4D-03,  2.9D-01, r^2= 4.9D+00
   Bfn.  Coefficient  Atom+Function         Bfn.  Coefficient  Atom+Function  
  ----- ------------  ---------------      ----- ------------  ---------------
    32      2.108329  1 N  dxz               15     -1.696830  1 N  px         
    34     -1.210218  1 N  dyz               16      0.973874  1 N  py         
    70      0.852671  2 O  px               125      0.852669  3 O  px         
    67      0.810353  2 O  px               122      0.810356  3 O  px         
    71     -0.489378  2 O  py               126     -0.489379  3 O  py         

 Vector   30  Occ=0.000000D+00  E= 3.479095D-01
              MO Center= -6.6D-04, -4.1D-03, -9.9D-02, r^2= 5.7D+00
   Bfn.  Coefficient  Atom+Function         Bfn.  Coefficient  Atom+Function  
  ----- ------------  ---------------      ----- ------------  ---------------
     4     11.472816  1 N  s                 59     -4.726888  2 O  s          
   114     -4.726477  3 O  s                  5      4.594147  1 N  s          
    14     -2.745095  1 N  pz                68      2.638595  2 O  py         
   123     -2.649606  3 O  py                31      2.537571  1 N  dxy        
    17     -2.154588  1 N  pz                60     -1.901560  2 O  s          

 Vector   31  Occ=0.000000D+00  E= 3.936898D-01
              MO Center= -9.2D-03, -1.6D-03,  4.9D-01, r^2= 5.4D+00
   Bfn.  Coefficient  Atom+Function         Bfn.  Coefficient  Atom+Function  
  ----- ------------  ---------------      ----- ------------  ---------------
    13      9.387935  1 N  py                59     -9.240692  2 O  s          
   114      9.240891  3 O  s                 34     -7.178804  1 N  dyz        
    12      5.387493  1 N  px               123      4.245405  3 O  py         
    68      4.223775  2 O  py                32     -4.119167  1 N  dxz        
   124      2.630550  3 O  pz                69     -2.594747  2 O  pz         

 Vector   32  Occ=0.000000D+00  E= 4.005815D-01
              MO Center= -5.9D-03, -2.4D-03,  2.7D-01, r^2= 4.5D+00
   Bfn.  Coefficient  Atom+Function         Bfn.  Coefficient  Atom+Function  
  ----- ------------  ---------------      ----- ------------  ---------------
    31      2.162830  1 N  dxy               30      1.850730  1 N  dxx        
    33     -1.850949  1 N  dyy               67     -1.441569  2 O  px         
   122      1.441400  3 O  px                68      0.827362  2 O  py         
   123     -0.827291  3 O  py                70     -0.588340  2 O  px         
   125      0.588245  3 O  px                50     -0.464701  1 N  fxyz       

 Vector   33  Occ=0.000000D+00  E= 4.010327D-01
              MO Center=  2.4D-03, -5.1D-03, -3.1D-01, r^2= 5.0D+00
   Bfn.  Coefficient  Atom+Function         Bfn.  Coefficient  Atom+Function  
  ----- ------------  ---------------      ----- ------------  ---------------
    12      3.836364  1 N  px                13     -2.201958  1 N  py         
    51     -1.088092  1 N  fxzz              46     -1.069663  1 N  fxxx       
    49     -1.067857  1 N  fxyy              32     -0.798013  1 N  dxz        
    47      0.787834  1 N  fxxy              54      0.624510  1 N  fyzz       
     9     -0.558960  1 N  px                52      0.555586  1 N  fyyy       

 Vector   34  Occ=0.000000D+00  E= 4.573421D-01
              MO Center=  3.5D-03, -5.2D-03, -3.9D-01, r^2= 7.0D+00
   Bfn.  Coefficient  Atom+Function         Bfn.  Coefficient  Atom+Function  
  ----- ------------  ---------------      ----- ------------  ---------------
     4     24.596161  1 N  s                 59     -9.174298  2 O  s          
   114     -9.174772  3 O  s                 14     -8.473005  1 N  pz         
   123     -4.909218  3 O  py                68      4.872380  2 O  py         
    31      4.722212  1 N  dxy              124     -4.455745  3 O  pz         
    69     -4.414223  2 O  pz                33      4.001839  1 N  dyy        

 Vector   35  Occ=0.000000D+00  E= 4.655420D-01
              MO Center= -2.1D-04, -4.2D-03, -1.3D-01, r^2= 6.0D+00
   Bfn.  Coefficient  Atom+Function         Bfn.  Coefficient  Atom+Function  
  ----- ------------  ---------------      ----- ------------  ---------------
     4      8.991212  1 N  s                 14     -8.369612  1 N  pz         
    35      3.779413  1 N  dzz               68      3.311136  2 O  py         
   123     -3.303164  3 O  py                59     -2.687947  2 O  s          
   114     -2.688088  3 O  s                 33     -1.911237  1 N  dyy        
   122     -1.912123  3 O  px                67      1.883590  2 O  px         

 Vector   36  Occ=0.000000D+00  E= 4.754454D-01
              MO Center=  5.2D-03, -5.7D-03, -5.0D-01, r^2= 6.8D+00
   Bfn.  Coefficient  Atom+Function         Bfn.  Coefficient  Atom+Function  
  ----- ------------  ---------------      ----- ------------  ---------------
    13     14.630774  1 N  py                59    -10.077349  2 O  s          
   114     10.077386  3 O  s                 12      8.396080  1 N  px         
   123      5.737827  3 O  py                68      5.704974  2 O  py         
    34     -5.016225  1 N  dyz              124      4.005573  3 O  pz         
    69     -3.957158  2 O  pz                67      3.341346  2 O  px         

 Vector   37  Occ=0.000000D+00  E= 5.468213D-01
              MO Center= -3.8D-04, -4.2D-03, -1.2D-01, r^2= 4.7D+00
   Bfn.  Coefficient  Atom+Function         Bfn.  Coefficient  Atom+Function  
  ----- ------------  ---------------      ----- ------------  ---------------
    32      2.849158  1 N  dxz               12     -1.715691  1 N  px         
    34     -1.635441  1 N  dyz               13      0.984703  1 N  py         
    86     -0.845270  2 O  dxy              141      0.826515  3 O  dxy        
    15     -0.803775  1 N  px                87     -0.770132  2 O  dxz        
   142     -0.735258  3 O  dxz              140      0.726271  3 O  dxx        

 Vector   38  Occ=0.000000D+00  E= 5.537436D-01
              MO Center=  1.3D-02, -7.8D-03, -1.0D+00, r^2= 5.9D+00
   Bfn.  Coefficient  Atom+Function         Bfn.  Coefficient  Atom+Function  
  ----- ------------  ---------------      ----- ------------  ---------------
    67      0.901078  2 O  px               122     -0.901145  3 O  px         
   142      0.891801  3 O  dxz               70     -0.876913  2 O  px         
   125      0.876874  3 O  px                87     -0.870626  2 O  dxz        
    31      0.615131  1 N  dxy               30      0.526363  1 N  dxx        
    33     -0.526422  1 N  dyy               68     -0.517148  2 O  py         

 Vector   39  Occ=0.000000D+00  E= 5.576751D-01
              MO Center=  9.5D-03, -6.9D-03, -7.9D-01, r^2= 4.3D+00
   Bfn.  Coefficient  Atom+Function         Bfn.  Coefficient  Atom+Function  
  ----- ------------  ---------------      ----- ------------  ---------------
     4     13.242675  1 N  s                 14     -5.833358  1 N  pz         
    59     -5.689008  2 O  s                114     -5.689142  3 O  s          
    68      3.753638  2 O  py               123     -3.757422  3 O  py         
     5     -2.739657  1 N  s                 31      2.561722  1 N  dxy        
    60      2.175612  2 O  s                115      2.175606  3 O  s          

 Vector   40  Occ=0.000000D+00  E= 5.900032D-01
              MO Center=  1.3D-02, -7.8D-03, -1.0D+00, r^2= 5.5D+00
   Bfn.  Coefficient  Atom+Function         Bfn.  Coefficient  Atom+Function  
  ----- ------------  ---------------      ----- ------------  ---------------
    67      1.439557  2 O  px               122      1.439535  3 O  px         
    15      1.205927  1 N  px                70     -0.985024  2 O  px         
   125     -0.985017  3 O  px               142     -0.965459  3 O  dxz        
    87     -0.948715  2 O  dxz               68     -0.826215  2 O  py         
   123     -0.826208  3 O  py                12     -0.774153  1 N  px         

 Vector   41  Occ=0.000000D+00  E= 5.918176D-01
              MO Center=  1.6D-02, -8.7D-03, -1.2D+00, r^2= 5.8D+00
   Bfn.  Coefficient  Atom+Function         Bfn.  Coefficient  Atom+Function  
  ----- ------------  ---------------      ----- ------------  ---------------
    16      1.470349  1 N  py                71     -1.328841  2 O  py         
   126     -1.318844  3 O  py                13     -1.216173  1 N  py         
    34      1.210538  1 N  dyz               72     -1.214976  2 O  pz         
   127      1.203781  3 O  pz                69      1.033164  2 O  pz         
   124     -1.034616  3 O  pz                90     -0.992696  2 O  dzz        

 Vector   42  Occ=0.000000D+00  E= 6.034871D-01
              MO Center=  3.8D-03, -5.3D-03, -4.1D-01, r^2= 5.6D+00
   Bfn.  Coefficient  Atom+Function         Bfn.  Coefficient  Atom+Function  
  ----- ------------  ---------------      ----- ------------  ---------------
     4     12.154513  1 N  s                 59     -5.099371  2 O  s          
   114     -5.099431  3 O  s                  5     -3.760582  1 N  s          
    14     -3.155986  1 N  pz                60      2.958854  2 O  s          
   115      2.958829  3 O  s                124     -2.532102  3 O  pz         
    69     -2.514032  2 O  pz                31      2.460379  1 N  dxy        

 Vector   43  Occ=0.000000D+00  E= 6.469140D-01
              MO Center=  4.9D-03, -5.6D-03, -4.8D-01, r^2= 5.5D+00
   Bfn.  Coefficient  Atom+Function         Bfn.  Coefficient  Atom+Function  
  ----- ------------  ---------------      ----- ------------  ---------------
    59      3.865431  2 O  s                114     -3.865780  3 O  s          
    60     -3.645833  2 O  s                115      3.645612  3 O  s          
    34      2.514722  1 N  dyz               68     -2.233464  2 O  py         
   123     -2.236355  3 O  py                89     -1.947322  2 O  dyz        
   144     -1.945502  3 O  dyz              143     -1.791216  3 O  dyy        

 Vector   44  Occ=0.000000D+00  E= 6.705816D-01
              MO Center=  9.6D-03, -7.0D-03, -8.0D-01, r^2= 6.7D+00
   Bfn.  Coefficient  Atom+Function         Bfn.  Coefficient  Atom+Function  
  ----- ------------  ---------------      ----- ------------  ---------------
     5     13.466575  1 N  s                 60    -11.075939  2 O  s          
   115    -11.076098  3 O  s                 14     -4.605104  1 N  pz         
    31      2.698181  1 N  dxy               17     -2.625229  1 N  pz         
    33      2.400729  1 N  dyy               59     -1.686332  2 O  s          
   114     -1.686121  3 O  s                 35      1.596891  1 N  dzz        

 Vector   45  Occ=0.000000D+00  E= 6.869424D-01
              MO Center=  5.7D-03, -5.8D-03, -5.3D-01, r^2= 4.3D+00
   Bfn.  Coefficient  Atom+Function         Bfn.  Coefficient  Atom+Function  
  ----- ------------  ---------------      ----- ------------  ---------------
    31      1.191874  1 N  dxy               87     -1.161732  2 O  dxz        
   142      1.136565  3 O  dxz               30      1.019879  1 N  dxx        
    33     -1.020003  1 N  dyy               67     -0.692007  2 O  px         
   122      0.692043  3 O  px               144     -0.672720  3 O  dyz        
    89      0.646515  2 O  dyz               86     -0.619460  2 O  dxy        

 Vector   46  Occ=0.000000D+00  E= 7.108381D-01
              MO Center= -1.3D-03, -3.9D-03, -5.3D-02, r^2= 7.6D+00
   Bfn.  Coefficient  Atom+Function         Bfn.  Coefficient  Atom+Function  
  ----- ------------  ---------------      ----- ------------  ---------------
    60     10.080848  2 O  s                115    -10.080944  3 O  s          
    16     -3.576157  1 N  py                13     -2.772390  1 N  py         
    34      2.080717  1 N  dyz               15     -2.052229  1 N  px         
    12     -1.590980  1 N  px                90     -1.429705  2 O  dzz        
   145      1.427475  3 O  dzz               72      1.414689  2 O  pz         

 Vector   47  Occ=0.000000D+00  E= 7.741162D-01
              MO Center=  3.5D-03, -5.2D-03, -3.8D-01, r^2= 5.1D+00
   Bfn.  Coefficient  Atom+Function         Bfn.  Coefficient  Atom+Function  
  ----- ------------  ---------------      ----- ------------  ---------------
    14     14.749622  1 N  pz                 4    -11.537673  1 N  s          
    59      7.119073  2 O  s                114      7.118477  3 O  s          
    35     -5.693975  1 N  dzz               33     -4.707349  1 N  dyy        
    68     -4.680429  2 O  py               123      4.682852  3 O  py         
     5      3.661341  1 N  s                 31     -3.080659  1 N  dxy        

 Vector   48  Occ=0.000000D+00  E= 7.953132D-01
              MO Center=  2.1D-03, -4.9D-03, -2.9D-01, r^2= 5.2D+00
   Bfn.  Coefficient  Atom+Function         Bfn.  Coefficient  Atom+Function  
  ----- ------------  ---------------      ----- ------------  ---------------
    13     21.215017  1 N  py                12     12.174471  1 N  px         
    59    -11.758569  2 O  s                114     11.759080  3 O  s          
    34    -10.984161  1 N  dyz               32     -6.302588  1 N  dxz        
    68      4.333853  2 O  py               123      4.350981  3 O  py         
    47     -3.804843  1 N  fxxy              52     -3.808746  1 N  fyyy       

 Vector   49  Occ=0.000000D+00  E= 8.043730D-01
              MO Center=  1.0D-03, -4.5D-03, -2.1D-01, r^2= 4.0D+00
   Bfn.  Coefficient  Atom+Function         Bfn.  Coefficient  Atom+Function  
  ----- ------------  ---------------      ----- ------------  ---------------
    12      5.849473  1 N  px                67     -4.112193  2 O  px         
   122     -4.112040  3 O  px                32     -3.560436  1 N  dxz        
    13     -3.356921  1 N  py                68      2.360201  2 O  py         
   123      2.360193  3 O  py                34      2.043582  1 N  dyz        
   141     -1.718380  3 O  dxy               86      1.678806  2 O  dxy        

 Vector   50  Occ=0.000000D+00  E= 8.447371D-01
              MO Center= -2.8D-03, -3.4D-03,  5.0D-02, r^2= 3.9D+00
   Bfn.  Coefficient  Atom+Function         Bfn.  Coefficient  Atom+Function  
  ----- ------------  ---------------      ----- ------------  ---------------
    67      4.070039  2 O  px               122     -4.070260  3 O  px         
    31     -3.198028  1 N  dxy               30     -2.736529  1 N  dxx        
    33      2.736849  1 N  dyy               68     -2.335951  2 O  py         
   123      2.336120  3 O  py               142     -1.979020  3 O  dxz        
    87      1.927686  2 O  dxz              141     -1.255740  3 O  dxy        

 Vector   51  Occ=0.000000D+00  E= 9.027591D-01
              MO Center= -3.3D-03, -3.3D-03,  8.3D-02, r^2= 4.6D+00
   Bfn.  Coefficient  Atom+Function         Bfn.  Coefficient  Atom+Function  
  ----- ------------  ---------------      ----- ------------  ---------------
     4     14.812929  1 N  s                 14     -8.356413  1 N  pz         
    68      6.870989  2 O  py               123     -6.848568  3 O  py         
    33     -4.655205  1 N  dyy               31     -4.590471  1 N  dxy        
    59     -4.040375  2 O  s                114     -4.040186  3 O  s          
   122     -3.975990  3 O  px                67      3.897163  2 O  px         

 Vector   52  Occ=0.000000D+00  E= 9.717770D-01
              MO Center=  4.2D-03, -5.4D-03, -4.3D-01, r^2= 4.9D+00
   Bfn.  Coefficient  Atom+Function         Bfn.  Coefficient  Atom+Function  
  ----- ------------  ---------------      ----- ------------  ---------------
    13     20.275261  1 N  py                59    -14.404809  2 O  s          
   114     14.404133  3 O  s                 12     11.635254  1 N  px         
    69     -9.097264  2 O  pz               124      9.139250  3 O  pz         
    34     -5.897130  1 N  dyz              123      5.074343  3 O  py         
    68      4.999509  2 O  py               145      4.202205  3 O  dzz        

 Vector   53  Occ=0.000000D+00  E= 1.045444D+00
              MO Center= -2.6D-03, -3.5D-03,  3.7D-02, r^2= 4.3D+00
   Bfn.  Coefficient  Atom+Function         Bfn.  Coefficient  Atom+Function  
  ----- ------------  ---------------      ----- ------------  ---------------
     4     46.110661  1 N  s                 59    -16.931195  2 O  s          
   114    -16.931534  3 O  s                123    -10.731060  3 O  py         
   124    -10.715933  3 O  pz                68     10.643303  2 O  py         
    69    -10.625322  2 O  pz                14     -8.976918  1 N  pz         
    31      7.189251  1 N  dxy               67      6.288641  2 O  px         

 Vector   54  Occ=0.000000D+00  E= 1.114943D+00
              MO Center=  2.1D-03, -4.8D-03, -2.9D-01, r^2= 3.9D+00
   Bfn.  Coefficient  Atom+Function         Bfn.  Coefficient  Atom+Function  
  ----- ------------  ---------------      ----- ------------  ---------------
    59     14.541427  2 O  s                114    -14.543485  3 O  s          
    68    -12.376383  2 O  py               123    -12.434927  3 O  py         
    13    -11.323965  1 N  py                67     -7.221252  2 O  px         
   124     -7.068197  3 O  pz               122     -7.017076  3 O  px         
    69      6.962900  2 O  pz                12     -6.498428  1 N  px         

 Vector   55  Occ=0.000000D+00  E= 1.118032D+00
              MO Center= -1.1D-03, -3.9D-03, -7.0D-02, r^2= 4.4D+00
   Bfn.  Coefficient  Atom+Function         Bfn.  Coefficient  Atom+Function  
  ----- ------------  ---------------      ----- ------------  ---------------
     4      8.131907  1 N  s                 30     -3.633467  1 N  dxx        
    33     -3.453272  1 N  dyy               35     -2.903442  1 N  dzz        
     5      2.796591  1 N  s                 29     -1.807625  1 N  dzz        
     3     -1.717415  1 N  s                 59     -1.645320  2 O  s          
   114     -1.640093  3 O  s                 24     -1.615673  1 N  dxx        

 Vector   56  Occ=0.000000D+00  E= 1.181801D+00
              MO Center= -7.6D-03, -2.1D-03,  3.8D-01, r^2= 2.5D+00
   Bfn.  Coefficient  Atom+Function         Bfn.  Coefficient  Atom+Function  
  ----- ------------  ---------------      ----- ------------  ---------------
    12      3.192253  1 N  px                51     -2.057612  1 N  fxzz       
    49     -1.854175  1 N  fxyy              46     -1.843111  1 N  fxxx       
    13     -1.830671  1 N  py                52      1.412597  1 N  fyyy       
    54      1.180549  1 N  fyzz              15     -0.901499  1 N  px         
    26     -0.810913  1 N  dxz               32      0.665736  1 N  dxz        

 Vector   57  Occ=0.000000D+00  E= 1.183922D+00
              MO Center= -3.9D-03, -3.2D-03,  1.3D-01, r^2= 3.9D+00
   Bfn.  Coefficient  Atom+Function         Bfn.  Coefficient  Atom+Function  
  ----- ------------  ---------------      ----- ------------  ---------------
     4     36.491802  1 N  s                 14    -14.613825  1 N  pz         
    59    -10.905574  2 O  s                114    -10.914534  3 O  s          
   123     -9.574873  3 O  py                68      9.508888  2 O  py         
   124     -7.097343  3 O  pz                69     -7.011589  2 O  pz         
    67      5.576298  2 O  px               122     -5.375107  3 O  px         

 Vector   58  Occ=0.000000D+00  E= 1.185970D+00
              MO Center= -2.4D-03, -3.5D-03,  2.5D-02, r^2= 4.5D+00
   Bfn.  Coefficient  Atom+Function         Bfn.  Coefficient  Atom+Function  
  ----- ------------  ---------------      ----- ------------  ---------------
    13     21.970299  1 N  py                59    -13.068156  2 O  s          
   114     13.061512  3 O  s                 12     12.607832  1 N  px         
    68     11.526126  2 O  py               123     11.581729  3 O  py         
   124      7.505025  3 O  pz                69     -7.411703  2 O  pz         
    67      6.740899  2 O  px               122      6.520025  3 O  px         

 Vector   59  Occ=0.000000D+00  E= 1.221551D+00
              MO Center=  3.2D-03, -5.1D-03, -3.6D-01, r^2= 2.4D+00
   Bfn.  Coefficient  Atom+Function         Bfn.  Coefficient  Atom+Function  
  ----- ------------  ---------------      ----- ------------  ---------------
    12      2.004789  1 N  px                46     -1.856121  1 N  fxxx       
    49     -1.849152  1 N  fxyy              51     -1.801338  1 N  fxzz       
    47      1.736936  1 N  fxxy              13     -1.150778  1 N  py         
    26      1.108147  1 N  dxz               54      1.033944  1 N  fyzz       
    52      0.840071  1 N  fyyy              28     -0.636089  1 N  dyz        

 Vector   60  Occ=0.000000D+00  E= 1.240590D+00
              MO Center= -1.5D-03, -3.8D-03, -4.4D-02, r^2= 2.4D+00
   Bfn.  Coefficient  Atom+Function         Bfn.  Coefficient  Atom+Function  
  ----- ------------  ---------------      ----- ------------  ---------------
    50      1.470210  1 N  fxyz              48      1.257894  1 N  fxxz       
    53     -1.258382  1 N  fyyz              67     -0.773792  2 O  px         
   122      0.773902  3 O  px               142      0.776257  3 O  dxz        
    87     -0.759984  2 O  dxz               25      0.616144  1 N  dxy        
    24      0.527234  1 N  dxx               27     -0.527299  1 N  dyy        

 Vector   61  Occ=0.000000D+00  E= 1.323218D+00
              MO Center=  1.6D-03, -4.7D-03, -2.5D-01, r^2= 2.5D+00
   Bfn.  Coefficient  Atom+Function         Bfn.  Coefficient  Atom+Function  
  ----- ------------  ---------------      ----- ------------  ---------------
    48      2.444484  1 N  fxxz              53      2.402179  1 N  fyyz       
    31      2.203693  1 N  dxy               69     -1.630670  2 O  pz         
   124     -1.622613  3 O  pz                33      1.565030  1 N  dyy        
    90     -1.522914  2 O  dzz              145     -1.524727  3 O  dzz        
    29     -1.145452  1 N  dzz               68     -0.953302  2 O  py         

 Vector   62  Occ=0.000000D+00  E= 1.405002D+00
              MO Center= -1.9D-03, -3.7D-03, -9.9D-03, r^2= 2.5D+00
   Bfn.  Coefficient  Atom+Function         Bfn.  Coefficient  Atom+Function  
  ----- ------------  ---------------      ----- ------------  ---------------
    51      2.417719  1 N  fxzz              32     -1.985669  1 N  dxz        
    12      1.471369  1 N  px                54     -1.388155  1 N  fyzz       
    34      1.139790  1 N  dyz               67     -0.901930  2 O  px         
   122     -0.901942  3 O  px                13     -0.844469  1 N  py         
    49     -0.799399  1 N  fxyy              46     -0.792570  1 N  fxxx       

 Vector   63  Occ=0.000000D+00  E= 1.477569D+00
              MO Center=  5.7D-04, -4.4D-03, -1.8D-01, r^2= 3.2D+00
   Bfn.  Coefficient  Atom+Function         Bfn.  Coefficient  Atom+Function  
  ----- ------------  ---------------      ----- ------------  ---------------
     4     27.773297  1 N  s                 14     -9.348468  1 N  pz         
    59     -8.338485  2 O  s                114     -8.338654  3 O  s          
    68      7.515001  2 O  py               123     -7.535199  3 O  py         
    67      4.354262  2 O  px               122     -4.282518  3 O  px         
    88     -3.975032  2 O  dyy              143     -3.984144  3 O  dyy        

 Vector   64  Occ=0.000000D+00  E= 1.521443D+00
              MO Center=  2.8D-03, -5.0D-03, -3.4D-01, r^2= 3.5D+00
   Bfn.  Coefficient  Atom+Function         Bfn.  Coefficient  Atom+Function  
  ----- ------------  ---------------      ----- ------------  ---------------
    50      2.589322  1 N  fxyz              48      2.215411  1 N  fxxz       
    53     -2.216240  1 N  fyyz              31     -1.584200  1 N  dxy        
    30     -1.355593  1 N  dxx               33      1.355765  1 N  dyy        
    25     -1.256502  1 N  dxy              141     -1.200815  3 O  dxy        
    86     -1.176354  2 O  dxy               67      1.123369  2 O  px         

 Vector   65  Occ=0.000000D+00  E= 1.521768D+00
              MO Center=  3.8D-04, -4.3D-03, -1.7D-01, r^2= 2.9D+00
   Bfn.  Coefficient  Atom+Function         Bfn.  Coefficient  Atom+Function  
  ----- ------------  ---------------      ----- ------------  ---------------
   123      5.423992  3 O  py                68      5.396978  2 O  py         
   124      3.298595  3 O  pz                69     -3.253147  2 O  pz         
    67      3.152444  2 O  px               122      3.057303  3 O  px         
    47      2.927441  1 N  fxxy              52      2.893600  1 N  fyyy       
    46      2.754952  1 N  fxxx             143      2.670850  3 O  dyy        

 Vector   66  Occ=0.000000D+00  E= 1.545566D+00
              MO Center=  4.8D-03, -5.6D-03, -4.8D-01, r^2= 3.3D+00
   Bfn.  Coefficient  Atom+Function         Bfn.  Coefficient  Atom+Function  
  ----- ------------  ---------------      ----- ------------  ---------------
    12      3.689102  1 N  px                47      3.300086  1 N  fxxy       
    13     -2.117285  1 N  py                32     -1.934812  1 N  dxz        
   142     -1.524489  3 O  dxz               67     -1.491701  2 O  px         
   122     -1.491541  3 O  px                87     -1.473968  2 O  dxz        
    26     -1.387977  1 N  dxz               52     -1.342042  1 N  fyyy       

 Vector   67  Occ=0.000000D+00  E= 1.550488D+00
              MO Center= -6.2D-04, -4.1D-03, -1.0D-01, r^2= 3.1D+00
   Bfn.  Coefficient  Atom+Function         Bfn.  Coefficient  Atom+Function  
  ----- ------------  ---------------      ----- ------------  ---------------
     4     19.437482  1 N  s                124     -5.918687  3 O  pz         
    69     -5.877729  2 O  pz                50      5.534637  1 N  fxyz       
     5     -4.873136  1 N  s                123     -4.773271  3 O  py         
    68      4.723502  2 O  py                60      4.402675  2 O  s          
   115      4.403073  3 O  s                 14      4.163907  1 N  pz         

 Vector   68  Occ=0.000000D+00  E= 1.555707D+00
              MO Center=  7.2D-03, -6.2D-03, -6.3D-01, r^2= 3.9D+00
   Bfn.  Coefficient  Atom+Function         Bfn.  Coefficient  Atom+Function  
  ----- ------------  ---------------      ----- ------------  ---------------
    54      3.283419  1 N  fyzz              49     -2.499382  1 N  fxyy       
    13     -2.109006  1 N  py               145     -2.004625  3 O  dzz        
    90      1.992302  2 O  dzz               52     -1.977863  1 N  fyyy       
    47     -1.963006  1 N  fxxy              51      1.883660  1 N  fxzz       
   123     -1.876030  3 O  py                68     -1.863813  2 O  py         

 Vector   69  Occ=0.000000D+00  E= 1.699261D+00
              MO Center=  7.0D-03, -6.2D-03, -6.2D-01, r^2= 3.7D+00
   Bfn.  Coefficient  Atom+Function         Bfn.  Coefficient  Atom+Function  
  ----- ------------  ---------------      ----- ------------  ---------------
    69      4.282284  2 O  pz               124      4.274644  3 O  pz         
    50     -2.583287  1 N  fxyz             108     -2.132387  2 O  fyyz       
   163     -2.131598  3 O  fyyz              25      2.029113  1 N  dxy        
    59     -2.024718  2 O  s                114     -2.025204  3 O  s          
    33     -1.984492  1 N  dyy               53     -1.909525  1 N  fyyz       

 Vector   70  Occ=0.000000D+00  E= 1.722188D+00
              MO Center=  9.0D-03, -6.6D-03, -7.5D-01, r^2= 3.8D+00
   Bfn.  Coefficient  Atom+Function         Bfn.  Coefficient  Atom+Function  
  ----- ------------  ---------------      ----- ------------  ---------------
    13     11.583597  1 N  py                12      6.647495  1 N  px         
   123      5.549172  3 O  py                68      5.514531  2 O  py         
    59     -4.518072  2 O  s                114      4.517201  3 O  s          
   124      4.341140  3 O  pz                69     -4.294346  2 O  pz         
    67      3.237669  2 O  px                54     -3.098653  1 N  fyzz       

 Vector   71  Occ=0.000000D+00  E= 1.722587D+00
              MO Center=  5.5D-03, -5.7D-03, -5.2D-01, r^2= 3.5D+00
   Bfn.  Coefficient  Atom+Function         Bfn.  Coefficient  Atom+Function  
  ----- ------------  ---------------      ----- ------------  ---------------
    67      2.306986  2 O  px               122      2.306702  3 O  px         
    12     -1.740788  1 N  px               106     -1.416450  2 O  fxzz       
   161     -1.400535  3 O  fxzz              68     -1.323826  2 O  py         
   123     -1.323712  3 O  py               104     -1.089515  2 O  fxyy       
   156     -1.076627  3 O  fxxx             159     -1.076772  3 O  fxyy       

 Vector   72  Occ=0.000000D+00  E= 1.731835D+00
              MO Center=  9.8D-03, -7.1D-03, -8.2D-01, r^2= 2.7D+00
   Bfn.  Coefficient  Atom+Function         Bfn.  Coefficient  Atom+Function  
  ----- ------------  ---------------      ----- ------------  ---------------
    67      2.692019  2 O  px               122     -2.692272  3 O  px         
    68     -1.545026  2 O  py               123      1.545189  3 O  py         
   101     -1.291984  2 O  fxxx             104     -1.290710  2 O  fxyy       
   156      1.290172  3 O  fxxx             159      1.293343  3 O  fxyy       
   106     -1.267478  2 O  fxzz             161      1.270805  3 O  fxzz       

 Vector   73  Occ=0.000000D+00  E= 1.742662D+00
              MO Center=  5.8D-03, -6.0D-03, -5.5D-01, r^2= 3.4D+00
   Bfn.  Coefficient  Atom+Function         Bfn.  Coefficient  Atom+Function  
  ----- ------------  ---------------      ----- ------------  ---------------
    14      6.796387  1 N  pz                 4     -3.743099  1 N  s          
    53     -3.423168  1 N  fyyz              68     -3.363553  2 O  py         
   123      3.379200  3 O  py                48     -3.066955  1 N  fxxz       
    33     -2.685928  1 N  dyy               59      2.424289  2 O  s          
   114      2.425508  3 O  s                 35     -2.204758  1 N  dzz        

 Vector   74  Occ=0.000000D+00  E= 1.824559D+00
              MO Center=  3.2D-03, -5.1D-03, -3.6D-01, r^2= 2.6D+00
   Bfn.  Coefficient  Atom+Function         Bfn.  Coefficient  Atom+Function  
  ----- ------------  ---------------      ----- ------------  ---------------
    12      2.807996  1 N  px                67     -2.419043  2 O  px         
   122     -2.418983  3 O  px                47      1.831132  1 N  fxxy       
    13     -1.611607  1 N  py               157     -1.549813  3 O  fxxy       
   102     -1.541260  2 O  fxxy              68      1.388357  2 O  py         
   123      1.388371  3 O  py                32     -1.350858  1 N  dxz        

 Vector   75  Occ=0.000000D+00  E= 1.837140D+00
              MO Center=  7.6D-03, -6.4D-03, -6.7D-01, r^2= 2.6D+00
   Bfn.  Coefficient  Atom+Function         Bfn.  Coefficient  Atom+Function  
  ----- ------------  ---------------      ----- ------------  ---------------
    67      1.058568  2 O  px               122     -1.058747  3 O  px         
   105      0.960496  2 O  fxyz             160      0.886905  3 O  fxyz       
   158      0.838720  3 O  fxxz             108     -0.806480  2 O  fyyz       
   163     -0.774735  3 O  fyyz             103      0.741907  2 O  fxxz       
    31     -0.680049  1 N  dxy              106      0.667979  2 O  fxzz       

 Vector   76  Occ=0.000000D+00  E= 1.854676D+00
              MO Center=  1.4D-03, -4.6D-03, -2.4D-01, r^2= 3.3D+00
   Bfn.  Coefficient  Atom+Function         Bfn.  Coefficient  Atom+Function  
  ----- ------------  ---------------      ----- ------------  ---------------
    34     -3.431881  1 N  dyz               13      3.122811  1 N  py         
    68      2.977257  2 O  py               123      2.954350  3 O  py         
    69      2.791949  2 O  pz               124     -2.766819  3 O  pz         
    32     -1.969186  1 N  dxz               47     -1.960611  1 N  fxxy       
    52     -1.969457  1 N  fyyy              49     -1.949967  1 N  fxyy       

 Vector   77  Occ=0.000000D+00  E= 1.910694D+00
              MO Center=  8.1D-03, -6.5D-03, -7.0D-01, r^2= 2.6D+00
   Bfn.  Coefficient  Atom+Function         Bfn.  Coefficient  Atom+Function  
  ----- ------------  ---------------      ----- ------------  ---------------
    12      2.432605  1 N  px                67     -1.929395  2 O  px         
   122     -1.929310  3 O  px                32     -1.737790  1 N  dxz        
   161      1.455386  3 O  fxzz             106      1.446052  2 O  fxzz       
    13     -1.396140  1 N  py                47      1.135993  1 N  fxxy       
    68      1.107239  2 O  py               123      1.107437  3 O  py         

 Vector   78  Occ=0.000000D+00  E= 1.923570D+00
              MO Center=  5.0D-03, -5.7D-03, -4.9D-01, r^2= 3.1D+00
   Bfn.  Coefficient  Atom+Function         Bfn.  Coefficient  Atom+Function  
  ----- ------------  ---------------      ----- ------------  ---------------
     4     28.029488  1 N  s                 14    -13.746370  1 N  pz         
    68      9.953344  2 O  py               123    -10.001590  3 O  py         
    59     -8.699772  2 O  s                114     -8.699233  3 O  s          
   124     -5.892916  3 O  pz                67      5.810990  2 O  px         
    69     -5.808793  2 O  pz               122     -5.640443  3 O  px         

 Vector   79  Occ=0.000000D+00  E= 1.960983D+00
              MO Center=  8.5D-03, -6.6D-03, -7.2D-01, r^2= 2.9D+00
   Bfn.  Coefficient  Atom+Function         Bfn.  Coefficient  Atom+Function  
  ----- ------------  ---------------      ----- ------------  ---------------
    13     18.317503  1 N  py                59    -11.899052  2 O  s          
   114     11.899826  3 O  s                 12     10.511749  1 N  px         
   124      6.436525  3 O  pz                69     -6.387720  2 O  pz         
    34     -6.341120  1 N  dyz              123      5.720136  3 O  py         
    68      5.666524  2 O  py                32     -3.638484  1 N  dxz        

 Vector   80  Occ=0.000000D+00  E= 1.977743D+00
              MO Center=  5.7D-03, -5.9D-03, -5.3D-01, r^2= 2.9D+00
   Bfn.  Coefficient  Atom+Function         Bfn.  Coefficient  Atom+Function  
  ----- ------------  ---------------      ----- ------------  ---------------
     4     10.571613  1 N  s                 14     -7.683459  1 N  pz         
    68      4.874506  2 O  py               123     -4.868292  3 O  py         
   122     -2.807391  3 O  px                67      2.783662  2 O  px         
    59     -2.700101  2 O  s                114     -2.700829  3 O  s          
    35      2.507145  1 N  dzz               88     -2.159840  2 O  dyy        

 Vector   81  Occ=0.000000D+00  E= 1.994078D+00
              MO Center=  4.3D-04, -4.4D-03, -1.7D-01, r^2= 2.8D+00
   Bfn.  Coefficient  Atom+Function         Bfn.  Coefficient  Atom+Function  
  ----- ------------  ---------------      ----- ------------  ---------------
    67      2.661112  2 O  px               122     -2.661168  3 O  px         
    31     -1.861560  1 N  dxy               50      1.803936  1 N  fxyz       
    30     -1.592934  1 N  dxx               33      1.593137  1 N  dyy        
    48      1.543428  1 N  fxxz              53     -1.544013  1 N  fyyz       
    68     -1.527319  2 O  py               123      1.527368  3 O  py         

 Vector   82  Occ=0.000000D+00  E= 2.039909D+00
              MO Center=  4.6D-03, -5.6D-03, -4.6D-01, r^2= 3.6D+00
   Bfn.  Coefficient  Atom+Function         Bfn.  Coefficient  Atom+Function  
  ----- ------------  ---------------      ----- ------------  ---------------
    13      6.374966  1 N  py                60      5.904482  2 O  s          
   115     -5.905384  3 O  s                 68      3.904142  2 O  py         
   123      3.917718  3 O  py                88     -3.793339  2 O  dyy        
   143      3.794861  3 O  dyy               12      3.658374  1 N  px         
    49     -3.245083  1 N  fxyy              85     -3.178717  2 O  dxx        

 Vector   83  Occ=0.000000D+00  E= 2.065377D+00
              MO Center=  1.0D-02, -6.4D-03, -8.2D-01, r^2= 3.9D+00
   Bfn.  Coefficient  Atom+Function         Bfn.  Coefficient  Atom+Function  
  ----- ------------  ---------------      ----- ------------  ---------------
     4     32.919750  1 N  s                 59    -14.845292  2 O  s          
   114    -14.834962  3 O  s                123     -9.126756  3 O  py         
    68      9.078061  2 O  py                 5      8.672014  1 N  s          
    14     -7.767607  1 N  pz                60     -7.298655  2 O  s          
   115     -7.293881  3 O  s                124     -7.214605  3 O  pz         

 Vector   84  Occ=0.000000D+00  E= 2.067711D+00
              MO Center=  5.6D-03, -6.5D-03, -5.5D-01, r^2= 3.1D+00
   Bfn.  Coefficient  Atom+Function         Bfn.  Coefficient  Atom+Function  
  ----- ------------  ---------------      ----- ------------  ---------------
   123     -8.383390  3 O  py                68     -8.334999  2 O  py         
    59      7.997839  2 O  s                114     -8.018274  3 O  s          
    67     -4.856561  2 O  px               122     -4.737375  3 O  px         
   124     -4.376340  3 O  pz                69      4.295801  2 O  pz         
    13     -3.679710  1 N  py                60      3.021196  2 O  s          

 Vector   85  Occ=0.000000D+00  E= 2.219853D+00
              MO Center=  4.5D-03, -5.5D-03, -4.5D-01, r^2= 2.9D+00
   Bfn.  Coefficient  Atom+Function         Bfn.  Coefficient  Atom+Function  
  ----- ------------  ---------------      ----- ------------  ---------------
    59      6.434350  2 O  s                114     -6.435044  3 O  s          
    13     -5.350478  1 N  py                68     -4.430489  2 O  py         
   123     -4.452267  3 O  py                12     -3.070446  1 N  px         
   124     -2.604083  3 O  pz                67     -2.586298  2 O  px         
    69      2.566224  2 O  pz               122     -2.511191  3 O  px         

 Vector   86  Occ=0.000000D+00  E= 2.236213D+00
              MO Center=  5.4D-03, -5.7D-03, -5.1D-01, r^2= 2.9D+00
   Bfn.  Coefficient  Atom+Function         Bfn.  Coefficient  Atom+Function  
  ----- ------------  ---------------      ----- ------------  ---------------
    50      1.991865  1 N  fxyz              48      1.704234  1 N  fxxz       
    53     -1.704873  1 N  fyyz             160      1.240947  3 O  fxyz       
   105      1.164007  2 O  fxyz             161      1.164505  3 O  fxzz       
   106     -1.114374  2 O  fxzz             103      1.096193  2 O  fxxz       
   163     -1.052554  3 O  fyyz             108     -1.005879  2 O  fyyz       

 Vector   87  Occ=0.000000D+00  E= 2.257482D+00
              MO Center=  3.0D-03, -5.1D-03, -3.5D-01, r^2= 2.9D+00
   Bfn.  Coefficient  Atom+Function         Bfn.  Coefficient  Atom+Function  
  ----- ------------  ---------------      ----- ------------  ---------------
     4      7.668623  1 N  s                 14     -5.402626  1 N  pz         
    68      3.974866  2 O  py               123     -3.964062  3 O  py         
    59     -2.664566  2 O  s                114     -2.664389  3 O  s          
   122     -2.297178  3 O  px                67      2.258691  2 O  px         
    35      2.177667  1 N  dzz               86     -1.666903  2 O  dxy        

 Vector   88  Occ=0.000000D+00  E= 2.257730D+00
              MO Center=  6.5D-03, -6.1D-03, -5.9D-01, r^2= 2.9D+00
   Bfn.  Coefficient  Atom+Function         Bfn.  Coefficient  Atom+Function  
  ----- ------------  ---------------      ----- ------------  ---------------
    12      2.266185  1 N  px                67     -1.986032  2 O  px         
   122     -1.987349  3 O  px               160     -1.614392  3 O  fxyz       
   105      1.556889  2 O  fxyz             103      1.372244  2 O  fxxz       
   163      1.364112  3 O  fyyz             102     -1.350709  2 O  fxxy       
   108     -1.350212  2 O  fyyz             158     -1.341063  3 O  fxxz       

 Vector   89  Occ=0.000000D+00  E= 2.332848D+00
              MO Center= -8.6D-04, -4.0D-03, -8.3D-02, r^2= 3.1D+00
   Bfn.  Coefficient  Atom+Function         Bfn.  Coefficient  Atom+Function  
  ----- ------------  ---------------      ----- ------------  ---------------
     4     42.260029  1 N  s                 59    -13.173448  2 O  s          
   114    -13.172891  3 O  s                124     -6.891735  3 O  pz         
    69     -6.837787  2 O  pz                14     -6.533148  1 N  pz         
   123     -6.446549  3 O  py                68      6.390268  2 O  py         
    31      5.174979  1 N  dxy               24     -4.069180  1 N  dxx        

 Vector   90  Occ=0.000000D+00  E= 2.358783D+00
              MO Center=  7.3D-03, -6.3D-03, -6.4D-01, r^2= 3.0D+00
   Bfn.  Coefficient  Atom+Function         Bfn.  Coefficient  Atom+Function  
  ----- ------------  ---------------      ----- ------------  ---------------
   102      2.663868  2 O  fxxy             157     -2.657130  3 O  fxxy       
    67      1.792141  2 O  px               122     -1.792193  3 O  px         
    68     -1.028534  2 O  py               123      1.028578  3 O  py         
   141     -1.016705  3 O  dxy               86     -1.001661  2 O  dxy        
    85     -0.872307  2 O  dxx               88      0.862213  2 O  dyy        

 Vector   91  Occ=0.000000D+00  E= 2.410413D+00
              MO Center=  1.4D-03, -4.6D-03, -2.4D-01, r^2= 2.4D+00
   Bfn.  Coefficient  Atom+Function         Bfn.  Coefficient  Atom+Function  
  ----- ------------  ---------------      ----- ------------  ---------------
    59    -11.506969  2 O  s                114     11.508955  3 O  s          
    13     11.076661  1 N  py                12      6.356487  1 N  px         
   123      5.603347  3 O  py                68      5.558331  2 O  py         
   124      5.323105  3 O  pz                69     -5.275559  2 O  pz         
    34     -4.369955  1 N  dyz               49      4.248541  1 N  fxyy       

 Vector   92  Occ=0.000000D+00  E= 2.429122D+00
              MO Center=  2.2D-03, -4.9D-03, -3.0D-01, r^2= 3.3D+00
   Bfn.  Coefficient  Atom+Function         Bfn.  Coefficient  Atom+Function  
  ----- ------------  ---------------      ----- ------------  ---------------
     4     16.483266  1 N  s                 33     -5.179844  1 N  dyy        
    29     -4.207774  1 N  dzz               24     -4.121853  1 N  dxx        
    30     -3.874770  1 N  dxx               27     -3.641201  1 N  dyy        
    69      3.054007  2 O  pz               124      3.038893  3 O  pz         
     5      2.919107  1 N  s                 14     -2.770703  1 N  pz         

 Vector   93  Occ=0.000000D+00  E= 2.547378D+00
              MO Center=  4.2D-03, -5.4D-03, -4.3D-01, r^2= 3.5D+00
   Bfn.  Coefficient  Atom+Function         Bfn.  Coefficient  Atom+Function  
  ----- ------------  ---------------      ----- ------------  ---------------
    13     18.140284  1 N  py                68     12.634549  2 O  py         
   123     12.696038  3 O  py                59    -10.485573  2 O  s          
   114     10.486041  3 O  s                 12     10.410054  1 N  px         
   124      7.453390  3 O  pz                67      7.375919  2 O  px         
    69     -7.346156  2 O  pz               122      7.160408  3 O  px         

 Vector   94  Occ=0.000000D+00  E= 2.570295D+00
              MO Center=  7.6D-04, -4.4D-03, -1.9D-01, r^2= 2.9D+00
   Bfn.  Coefficient  Atom+Function         Bfn.  Coefficient  Atom+Function  
  ----- ------------  ---------------      ----- ------------  ---------------
     4     14.750235  1 N  s                 53      5.801747  1 N  fyyz       
    50      4.991281  1 N  fxyz             124     -4.774109  3 O  pz         
    69     -4.747187  2 O  pz                29     -3.352340  1 N  dzz        
   123     -3.208140  3 O  py                68      3.168741  2 O  py         
    48      2.884289  1 N  fxxz              14     -2.713718  1 N  pz         

 Vector   95  Occ=0.000000D+00  E= 2.587556D+00
              MO Center=  2.8D-03, -5.0D-03, -3.4D-01, r^2= 2.7D+00
   Bfn.  Coefficient  Atom+Function         Bfn.  Coefficient  Atom+Function  
  ----- ------------  ---------------      ----- ------------  ---------------
    47      3.614664  1 N  fxxy              51     -2.544318  1 N  fxzz       
   161     -2.208103  3 O  fxzz             106     -2.172935  2 O  fxzz       
    52     -2.023995  1 N  fyyy              54      1.461334  1 N  fyzz       
   109      1.276036  2 O  fyzz             157      1.236238  3 O  fxxy       
   164      1.239486  3 O  fyzz             102      1.217543  2 O  fxxy       

 Vector   96  Occ=0.000000D+00  E= 2.742377D+00
              MO Center=  6.0D-03, -6.0D-03, -5.6D-01, r^2= 3.1D+00
   Bfn.  Coefficient  Atom+Function         Bfn.  Coefficient  Atom+Function  
  ----- ------------  ---------------      ----- ------------  ---------------
    13      5.668090  1 N  py                49     -3.499930  1 N  fxyy       
    69     -3.299331  2 O  pz               124      3.301736  3 O  pz         
[...]
    36     -6.882787  1 N  fxxx              39     -6.878835  1 N  fxyy       
    41     -6.841228  1 N  fxzz              12      4.512577  1 N  px         
    37      4.331390  1 N  fxxy              44      3.926471  1 N  fyzz       
    42      3.822474  1 N  fyyy              46     -3.723456  1 N  fxxx       

 Vector  152  Occ=0.000000D+00  E= 1.051021D+01
              MO Center= -7.1D-04, -4.0D-03, -9.4D-02, r^2= 1.6D+00
   Bfn.  Coefficient  Atom+Function         Bfn.  Coefficient  Atom+Function  
  ----- ------------  ---------------      ----- ------------  ---------------
    11     16.799625  1 N  pz                 4     10.541346  1 N  s          
    38     -8.238797  1 N  fxxz              43     -8.212934  1 N  fyyz       
    45     -8.165069  1 N  fzzz              55     -4.740272  1 N  fzzz       
    48     -4.609948  1 N  fxxz              14      4.166422  1 N  pz         
     8     -3.322556  1 N  pz                53     -3.147563  1 N  fyyz       

 Vector  153  Occ=0.000000D+00  E= 1.173482D+01
              MO Center=  1.8D-03, -4.8D-03, -2.7D-01, r^2= 2.1D+00
   Bfn.  Coefficient  Atom+Function         Bfn.  Coefficient  Atom+Function  
  ----- ------------  ---------------      ----- ------------  ---------------
    10     15.546224  1 N  py                 9      8.921411  1 N  px         
    44     -6.338724  1 N  fyzz              37     -6.129648  1 N  fxxy       
    42     -6.128657  1 N  fyyy              57      5.070147  2 O  s          
   112     -5.070638  3 O  s                123     -4.175994  3 O  py         
    68     -4.152153  2 O  py                41     -3.637545  1 N  fxzz       

 Vector  154  Occ=0.000000D+00  E= 1.178772D+01
              MO Center= -2.0D-03, -3.6D-03, -4.8D-03, r^2= 6.9D-01
   Bfn.  Coefficient  Atom+Function         Bfn.  Coefficient  Atom+Function  
  ----- ------------  ---------------      ----- ------------  ---------------
     4     18.228786  1 N  s                  2      7.945208  1 N  s          
    27     -5.766562  1 N  dyy               29     -5.530210  1 N  dzz        
    24     -5.061834  1 N  dxx               11      4.373634  1 N  pz         
    18     -3.560132  1 N  dxx               21     -3.573602  1 N  dyy        
    23     -3.530074  1 N  dzz               68      2.861124  2 O  py         

 Vector  155  Occ=0.000000D+00  E= 1.225292D+01
              MO Center=  3.0D-03, -4.9D-03, -3.4D-01, r^2= 1.8D+00
   Bfn.  Coefficient  Atom+Function         Bfn.  Coefficient  Atom+Function  
  ----- ------------  ---------------      ----- ------------  ---------------
    10      9.330945  1 N  py                57     -6.379400  2 O  s          
   112      6.376469  3 O  s                  9      5.354702  1 N  px         
    37     -4.112795  1 N  fxxy              42     -4.104309  1 N  fyyy       
    28     -4.032692  1 N  dyz               44     -3.496747  1 N  fyzz       
    56     -3.399893  2 O  s                 68     -3.391625  2 O  py         

 Vector  156  Occ=0.000000D+00  E= 1.262030D+01
              MO Center=  3.8D-03, -5.5D-03, -4.1D-01, r^2= 2.2D+00
   Bfn.  Coefficient  Atom+Function         Bfn.  Coefficient  Atom+Function  
  ----- ------------  ---------------      ----- ------------  ---------------
    57      8.078048  2 O  s                112      8.080165  3 O  s          
     4      5.030983  1 N  s                 56      4.255864  2 O  s          
   111      4.256987  3 O  s                  5      4.187742  1 N  s          
    66     -3.620137  2 O  pz               121     -3.623279  3 O  pz         
    60     -3.192850  2 O  s                115     -3.193771  3 O  s          

 Vector  157  Occ=0.000000D+00  E= 1.318705D+01
              MO Center=  7.1D-03, -5.9D-03, -6.2D-01, r^2= 2.6D+00
   Bfn.  Coefficient  Atom+Function         Bfn.  Coefficient  Atom+Function  
  ----- ------------  ---------------      ----- ------------  ---------------
    64     10.171582  2 O  px               119    -10.167917  3 O  px         
    65     -5.837789  2 O  py               120      5.835790  3 O  py         
    91     -5.077833  2 O  fxxx              94     -5.077828  2 O  fxyy       
    96     -5.092452  2 O  fxzz             146      5.075989  3 O  fxxx       
   149      5.075976  3 O  fxyy             151      5.090611  3 O  fxzz       

 Vector  158  Occ=0.000000D+00  E= 1.322244D+01
              MO Center=  6.7D-03, -6.5D-03, -6.2D-01, r^2= 2.6D+00
   Bfn.  Coefficient  Atom+Function         Bfn.  Coefficient  Atom+Function  
  ----- ------------  ---------------      ----- ------------  ---------------
    64     10.076759  2 O  px               119     10.080474  3 O  px         
    65     -5.783446  2 O  py               120     -5.785491  3 O  py         
    91     -5.063502  2 O  fxxx              94     -5.063286  2 O  fxyy       
   146     -5.065215  3 O  fxxx             149     -5.065336  3 O  fxyy       
    96     -5.036329  2 O  fxzz             151     -5.038432  3 O  fxzz       

 Vector  159  Occ=0.000000D+00  E= 1.342461D+01
              MO Center=  6.6D-03, -6.1D-03, -6.0D-01, r^2= 2.6D+00
   Bfn.  Coefficient  Atom+Function         Bfn.  Coefficient  Atom+Function  
  ----- ------------  ---------------      ----- ------------  ---------------
    66     10.486252  2 O  pz               121    -10.446005  3 O  pz         
    93     -5.191908  2 O  fxxz              98     -5.213532  2 O  fyyz       
   100     -5.182341  2 O  fzzz             148      5.172932  3 O  fxxz       
   153      5.192982  3 O  fyyz             155      5.161882  3 O  fzzz       
    65      4.830398  2 O  py               120      4.743640  3 O  py         

 Vector  160  Occ=0.000000D+00  E= 1.388883D+01
              MO Center=  7.3D-03, -6.3D-03, -6.4D-01, r^2= 2.3D+00
   Bfn.  Coefficient  Atom+Function         Bfn.  Coefficient  Atom+Function  
  ----- ------------  ---------------      ----- ------------  ---------------
    66      8.805184  2 O  pz               121      8.750683  3 O  pz         
    65      6.466046  2 O  py               120     -6.393878  3 O  py         
    14     -5.598696  1 N  pz                69      4.233869  2 O  pz         
   100     -4.203747  2 O  fzzz             124      4.204343  3 O  pz         
    93     -4.176114  2 O  fxxz             155     -4.173143  3 O  fzzz       

 Vector  161  Occ=0.000000D+00  E= 1.560087D+01
              MO Center=  5.1D-03, -5.7D-03, -4.9D-01, r^2= 2.7D+00
   Bfn.  Coefficient  Atom+Function         Bfn.  Coefficient  Atom+Function  
  ----- ------------  ---------------      ----- ------------  ---------------
     4     26.856955  1 N  s                 14    -12.627327  1 N  pz         
   123     -9.166396  3 O  py                68      9.107212  2 O  py         
     2     -8.464149  1 N  s                 59     -7.562993  2 O  s          
   114     -7.563062  3 O  s                124     -7.183327  3 O  pz         
    69     -7.105975  2 O  pz               121     -6.348926  3 O  pz         

 Vector  162  Occ=0.000000D+00  E= 1.641216D+01
              MO Center=  6.8D-03, -6.2D-03, -6.1D-01, r^2= 2.1D+00
   Bfn.  Coefficient  Atom+Function         Bfn.  Coefficient  Atom+Function  
  ----- ------------  ---------------      ----- ------------  ---------------
    13     12.460396  1 N  py                59    -12.044764  2 O  s          
   114     12.045248  3 O  s                120      7.827780  3 O  py         
    65      7.788691  2 O  py               123      7.602775  3 O  py         
    68      7.560902  2 O  py                12      7.150572  1 N  px         
    57     -6.644075  2 O  s                112      6.644555  3 O  s          

 Vector  163  Occ=0.000000D+00  E= 1.683851D+01
              MO Center=  6.3D-03, -5.9D-03, -5.7D-01, r^2= 1.7D+00
   Bfn.  Coefficient  Atom+Function         Bfn.  Coefficient  Atom+Function  
  ----- ------------  ---------------      ----- ------------  ---------------
     4      7.955464  1 N  s                 59      6.757315  2 O  s          
   114      6.756645  3 O  s                 14     -4.567315  1 N  pz         
    57      4.259028  2 O  s                112      4.258500  3 O  s          
    79     -3.799742  2 O  dxx              134     -3.805293  3 O  dxx        
    84     -3.723327  2 O  dzz              139     -3.719966  3 O  dzz        

 Vector  164  Occ=0.000000D+00  E= 1.702501D+01
              MO Center=  5.6D-03, -5.9D-03, -5.3D-01, r^2= 1.6D+00
   Bfn.  Coefficient  Atom+Function         Bfn.  Coefficient  Atom+Function  
  ----- ------------  ---------------      ----- ------------  ---------------
    13     12.419503  1 N  py               123      7.406441  3 O  py         
    68      7.364477  2 O  py                12      7.127107  1 N  px         
   120      7.162403  3 O  py                65      7.125476  2 O  py         
   124      5.095953  3 O  pz                69     -5.033350  2 O  pz         
    10      4.907472  1 N  py                88     -4.582752  2 O  dyy        

 Vector  165  Occ=0.000000D+00  E= 1.957103D+01
              MO Center=  1.6D-03, -4.7D-03, -2.6D-01, r^2= 1.8D+00
   Bfn.  Coefficient  Atom+Function         Bfn.  Coefficient  Atom+Function  
  ----- ------------  ---------------      ----- ------------  ---------------
     2     18.900195  1 N  s                  4     16.266867  1 N  s          
     1      9.379588  1 N  s                 11     -8.637514  1 N  pz         
   120     -8.197756  3 O  py                65      8.153481  2 O  py         
    25      6.812455  1 N  dxy               59     -6.211806  2 O  s          
   114     -6.212312  3 O  s                121     -5.312688  3 O  pz         


   alpha - beta orbital overlaps 
   ----------------------------- 


   alpha      1      2      3      4      5      6      7      8      9     10
    beta      1      2      3      4      5      6      7      9      8     10
 overlap   1.000  1.000  1.000  1.000  1.000  0.996  0.998  0.996  1.000  1.000


   alpha     11     12     13     14     15     16     17     18     19     20
    beta     11     12     13     14     15     16     17     18     19     21
 overlap   0.998  0.999  1.000  0.998  0.999  1.000  1.000  0.980  0.999  0.982


   alpha     21     22     23     24     25     26     27     28     29     30
    beta     20     22     23     24     25     26     27     28     29     30
 overlap   1.000  1.000  0.998  0.976  0.972  0.999  0.994  0.986  1.000  0.987


   alpha     31     32     33     34     35     36     37     38     39     40
    beta     31     32     33     34     35     36     37     38     39     40
 overlap   1.000  1.000  1.000  0.929  0.929  0.999  0.998  1.000  0.999  0.999


   alpha     41     42     43     44     45     46     47     48     49     50
    beta     41     42     43     44     45     46     47     48     49     50
 overlap   0.999  0.999  0.999  0.999  1.000  0.999  1.000  1.000  1.000  1.000


   alpha     51     52     53     54     55     56     57     58     59     60
    beta     51     52     53     54     55     57     58     56     59     60
 overlap   0.999  1.000  1.000  1.000  0.995  0.997  0.994  1.000  0.998  1.000


   alpha     61     62     63     64     65     66     67     68     69     70
    beta     61     62     63     64     65     66     67     68     69     71
 overlap   0.999  0.998  0.999  1.000  0.997  0.999  0.999  0.996  0.999  1.000


   alpha     71     72     73     74     75     76     77     78     79     80
    beta     70     72     73     74     75     76     77     78     79     80
 overlap   1.000  0.999  0.999  0.999  0.999  0.997  0.999  0.996  0.996  0.996


   alpha     81     82     83     84     85     86     87     88     89     90
    beta     81     82     84     83     85     86     88     87     89     90
 overlap   1.000  0.999  0.999  0.999  1.000  1.000  0.999  1.000  0.999  1.000


   alpha     91     92     93     94     95     96     97     98     99    100
    beta     91     92     93     94     95     96     97     98     99    100
 overlap   1.000  1.000  1.000  1.000  1.000  1.000  1.000  1.000  1.000  1.000


   alpha    101    102    103    104    105    106    107    108    109    110
    beta    101    102    103    104    105    106    107    108    109    110
 overlap   1.000  1.000  1.000  1.000  1.000  0.999  0.999  0.998  0.999  1.000


   alpha    111    112    113    114    115    116    117    118    119    120
    beta    111    112    113    114    115    116    117    119    118    120
 overlap   0.997  0.997  0.999  0.997  0.999  1.000  1.000  0.999  1.000  1.000


   alpha    121    122    123    124    125    126    127    128    129    130
    beta    121    122    123    124    125    126    127    128    129    130
 overlap   1.000  1.000  0.999  1.000  0.999  1.000  0.999  0.999  0.999  0.998


   alpha    131    132    133    134    135    136    137    138    139    140
    beta    131    132    133    134    135    136    137    138    139    140
 overlap   0.999  0.999  0.998  0.998  0.999  1.000  0.999  1.000  1.000  1.000


   alpha    141    142    143    144    145    146    147    148    149    150
    beta    141    142    143    145    144    146    147    148    149    150
 overlap   0.999  1.000  1.000  1.000  0.999  0.987  0.987  0.998  0.998  1.000


   alpha    151    152    153    154    155    156    157    158    159    160
    beta    151    152    153    154    155    156    157    158    159    160
 overlap   1.000  1.000  1.000  1.000  1.000  1.000  1.000  1.000  1.000  1.000


   alpha    161    162    163    164    165
    beta    161    162    163    164    165
 overlap   1.000  1.000  1.000  1.000  1.000

     --------------------------
     Expectation value of S2:  
     --------------------------
      <S2> =      0.7524 (Exact =     0.7500)


 center of mass
 --------------
 x =   0.00756079 y =  -0.01014439 z =  -0.78972294

 moments of inertia (a.u.)
 ------------------
         115.619158212459         -57.535340722452          -0.019455228567
         -57.535340722452          48.379098458773          -0.487364215136
          -0.019455228567          -0.487364215136         133.282616647559

     Multipole analysis of the density
     ---------------------------------

     L   x y z        total         alpha         beta         nuclear
     -   - - -        -----         -----         ----         -------
     0   0 0 0     -0.000000    -12.000000    -11.000000     23.000000

     1   1 0 0     -0.002336     -0.090756     -0.085526      0.173946
     1   0 1 0      0.000650      0.121721      0.112264     -0.233334
     1   0 0 1      0.159861      9.477825      8.848950    -18.166914

     2   2 0 0    -11.840679    -14.715228    -13.642660     16.517208
     2   1 1 0     -0.897940    -15.414398    -14.258602     28.775060
     2   1 0 1      0.002915      0.077026      0.053510     -0.127621
     2   0 2 0    -12.890089    -32.731169    -30.307909     50.148989
     2   0 1 1     -0.009801     -0.229707     -0.208144      0.428051
     2   0 0 2    -11.829213    -18.191953    -15.665167     22.027907


 Task  times  cpu:        8.6s     wall:        9.0s


                                NWChem Input Module
                                -------------------


 Summary of allocated global arrays
-----------------------------------
  No active global arrays


MA_summarize_allocated_blocks: starting scan ...
heap block 'gridpts', handle 76, address 0x10bb9048:
	type of elements:		double precision
	number of elements:		33554432
	address of client space:	0x10bb90c0
	index for client space:		10485105
	total number of bytes:		268435584
MA_summarize_allocated_blocks: scan completed: 1 heap block, 0 stack blocks
MA usage statistics:

	allocation statistics:
					      heap	     stack
					      ----	     -----
	current number of blocks	         1	         0
	maximum number of blocks	        21	        53
	current total bytes		 268435584	         0
	maximum total bytes		 268758696	  30940568
	maximum total K-bytes		    268759	     30941
	maximum total M-bytes		       269	        31


                                     CITATION
                                     --------
                Please cite the following reference when publishing
                           results obtained with NWChem:

          E. Apra, E. J. Bylaska, W. A. de Jong, N. Govind, K. Kowalski,
       T. P. Straatsma, M. Valiev, H. J. J. van Dam, Y. Alexeev, J. Anchell,
       V. Anisimov, F. W. Aquino, R. Atta-Fynn, J. Autschbach, N. P. Bauman,
     J. C. Becca, D. E. Bernholdt, K. Bhaskaran-Nair, S. Bogatko, P. Borowski,
         J. Boschen, J. Brabec, A. Bruner, E. Cauet, Y. Chen, G. N. Chuev,
      C. J. Cramer, J. Daily, M. J. O. Deegan, T. H. Dunning Jr., M. Dupuis,
   K. G. Dyall, G. I. Fann, S. A. Fischer, A. Fonari, H. Fruchtl, L. Gagliardi,
      J. Garza, N. Gawande, S. Ghosh, K. Glaesemann, A. W. Gotz, J. Hammond,
       V. Helms, E. D. Hermes, K. Hirao, S. Hirata, M. Jacquelin, L. Jensen,
   B. G. Johnson, H. Jonsson, R. A. Kendall, M. Klemm, R. Kobayashi, V. Konkov,
      S. Krishnamoorthy, M. Krishnan, Z. Lin, R. D. Lins, R. J. Littlefield,
      A. J. Logsdail, K. Lopata, W. Ma, A. V. Marenich, J. Martin del Campo,
   D. Mejia-Rodriguez, J. E. Moore, J. M. Mullin, T. Nakajima, D. R. Nascimento,
    J. A. Nichols, P. J. Nichols, J. Nieplocha, A. Otero-de-la-Roza, B. Palmer,
    A. Panyala, T. Pirojsirikul, B. Peng, R. Peverati, J. Pittner, L. Pollack,
   R. M. Richard, P. Sadayappan, G. C. Schatz, W. A. Shelton, D. W. Silverstein,
   D. M. A. Smith, T. A. Soares, D. Song, M. Swart, H. L. Taylor, G. S. Thomas,
            V. Tipparaju, D. G. Truhlar, K. Tsemekhman, T. Van Voorhis,
      A. Vazquez-Mayagoitia, P. Verma, O. Villa, A. Vishnu, K. D. Vogiatzis,
        D. Wang, J. H. Weare, M. J. Williamson, T. L. Windus, K. Wolinski,
        A. T. Wong, Q. Wu, C. Yang, Q. Yu, M. Zacharias, Z. Zhang, Y. Zhao,
                                and R. J. Harrison
                        "NWChem: Past, present, and future
                         J. Chem. Phys. 152, 184102 (2020)
                               doi:10.1063/5.0004997

                                      AUTHORS
                                      -------
  E. Apra, E. J. Bylaska, N. Govind, K. Kowalski, M. Valiev, D. Mejia-Rodriguez,
       A. Kunitsa, N. P. Bauman, A. Panyala, W. A. de Jong, T. P. Straatsma,
   H. J. J. van Dam, D. Wang, T. L. Windus, J. Hammond, J. Autschbach, A. Woods,
    K. Bhaskaran-Nair, J. Brabec, K. Lopata, S. A. Fischer, S. Krishnamoorthy,
     M. Jacquelin, W. Ma, M. Klemm, O. Villa, Y. Chen, V. Anisimov, F. Aquino,
     S. Hirata, M. T. Hackler, E. Hermes, L. Jensen, J. E. Moore, J. C. Becca,
      V. Konjkov, T. Risthaus, M. Malagoli, A. Marenich, A. Otero-de-la-Roza,
        J. Mullin, P. Nichols, R. Peverati, J. Pittner, Y. Zhao, P.-D. Fan,
        A. Fonari, M. J. Williamson, R. J. Harrison, J. R. Rehr, M. Dupuis,
     D. Silverstein, D. M. A. Smith, J. Nieplocha, V. Tipparaju, M. Krishnan,
     B. E. Van Kuiken, A. Vazquez-Mayagoitia, M. Swart, Q. Wu, T. Van Voorhis,
     A. A. Auer, M. Nooijen, L. D. Crosby, E. Brown, G. Cisneros, G. I. Fann,
   H. Fruchtl, J. Garza, K. Hirao, R. A. Kendall, J. A. Nichols, K. Tsemekhman,
    K. Wolinski, J. Anchell, D. E. Bernholdt, P. Borowski, T. Clark, D. Clerc,
   H. Dachsel, M. J. O. Deegan, K. Dyall, D. Elwood, E. Glendening, M. Gutowski,
   A. C. Hess, J. Jaffe, B. G. Johnson, J. Ju, R. Kobayashi, R. Kutteh, Z. Lin,
   R. Littlefield, X. Long, B. Meng, T. Nakajima, S. Niu, L. Pollack, M. Rosing,
   K. Glaesemann, G. Sandrone, M. Stave, H. Taylor, G. Thomas, J. H. van Lenthe,
                               A. T. Wong, Z. Zhang.

 Total times  cpu:        8.7s     wall:        9.2s
